<?xml version="1.0"?>
<VTKFile type="ImageData" version="0.1" byte_order="LittleEndian">
<ImageData WholeExtent="0 100 0 100 0 100" Origin="0 0 0" Spacing="1 1 1">
<Piece Extent="0 100 0 100 0 100">
<PointData>
</PointData>
<CellData Scalars="Spin">
<DataArray type="Int32" Name="Spin" format="ascii" RangeMin="0" RangeMax="10000">
408 408 408 408 408 700 700 700 700 700 700 290 290 290 157 157 157 157 984 984 984 984 984 984 984 465 465 465 465 465 465 234 234 234 234 234 234 234 234 234 234 131 131 131 131 225 225 225 225 225 225 225 225 225 813 813 813 813 813 813 813 813 813 813 813 813 803 803 803 803 306 306 306 306 306 306 306 306 306 306 306 816 816 816 816 816 816 816 816 524 524 524 524 524 556 794 794 794 408 408 408 408 408 408 700 700 700 700 700 700 700 700 700 700 99 99 99 99 99 99 984 984 984 984 465 465 465 465 465 465 465 234 234 234 234 234 234 234 234 234 131 131 131 131 131 225 225 225 225 225 225 225 225 225 225 813 813 813 813 813 813 813 813 813 813 813 803 803 803 803 306 306 306 306 306 306 306 306 306 306 306 816 816 816 816 816 816 816 816 524 524 524 524 524 524 794 794 794 408 408 408 408 408 700 700 700 700 700 700 700 700 700 700 700 99 99 99 99 99 99 99 99 984 984 465 465 465 465 465 465 764 764 234 234 234 234 234 234 234 234 131 131 131 131 131 225 225 225 225 225 225 225 225 225 225 813 813 813 813 813 813 813 813 813 813 813 813 803 803 306 306 306 306 306 306 306 306 306 306 306 306 306 816 816 816 816 816 816 524 524 524 524 524 524 524 524 794 609 609 609 609 700 700 700 700 700 700 700 700 700 700 700 700 700 99 99 99 99 99 99 99 99 99 99 465 465 465 465 764 764 764 764 764 234 234 234 234 234 234 131 131 131 131 131 131 225 225 225 225 225 225 225 225 225 225 225 813 813 813 813 813 813 813 813 813 813 813 329 329 306 306 306 306 306 306 306 306 306 306 306 306 306 816 816 816 816 816 524 524 524 524 524 524 524 524 524 609 609 609 609 609 700 700 700 700 700 700 700 700 700 700 700 700 700 99 99 99 99 99 99 99 99 99 99 465 465 465 764 764 764 764 764 764 764 764 234 234 234 234 131 131 131 131 131 131 225 225 225 225 225 225 225 225 225 225 225 225 813 813 813 813 813 813 813 813 813 329 329 329 329 306 306 306 306 306 306 306 306 306 306 306 306 306 816 816 816 524 524 524 524 524 524 524 524 524 524 609 609 609 609 609 700 700 700 700 700 700 700 700 700 700 700 700 700 99 99 99 99 99 99 99 99 99 99 99 465 764 764 764 764 764 764 764 764 764 764 234 905 905 131 131 131 131 131 665 665 225 225 225 225 225 225 225 225 225 225 225 813 813 813 813 719 719 813 813 329 329 329 329 329 329 306 306 306 306 306 306 306 306 306 306 306 306 816 816 816 524 524 524 524 524 524 524 524 524 524 609 609 609 609 609 700 700 700 700 700 700 700 700 700 700 700 700 700 99 99 99 99 99 99 99 99 99 99 99 764 764 764 764 764 764 764 764 764 764 905 905 905 905 905 131 665 665 665 665 665 665 225 225 225 225 225 225 225 225 225 225 719 719 719 719 719 719 719 719 329 329 329 329 329 329 329 306 306 306 306 306 306 306 306 306 306 306 482 482 482 524 524 524 524 524 524 524 524 524 524 524 609 609 609 609 700 700 700 700 700 700 700 700 700 700 700 700 700 99 99 99 99 99 99 99 99 99 99 99 764 764 764 764 764 764 764 764 764 764 905 905 905 905 905 665 665 665 665 665 665 665 665 225 225 225 225 225 225 225 225 719 719 719 719 719 719 719 719 719 329 329 329 329 329 329 329 329 306 306 306 306 306 306 306 306 306 482 482 482 482 482 524 524 524 524 524 524 524 524 524 524 728 609 609 728 700 700 700 700 700 700 700 700 700 700 700 700 359 359 99 99 99 99 99 99 99 99 99 99 764 764 764 764 764 764 764 764 764 905 905 905 905 905 665 665 665 665 665 665 665 665 665 665 225 225 225 225 225 225 719 719 719 719 719 719 719 719 719 719 719 329 329 329 329 329 329 329 329 306 306 306 306 306 306 306 482 482 482 482 482 482 482 524 524 524 524 524 524 524 524 728 728 728 728 728 643 643 643 643 643 643 643 700 700 700 700 359 359 359 359 359 99 99 99 99 99 99 99 380 764 764 764 764 764 764 764 652 652 905 905 905 905 905 537 665 665 665 665 665 665 665 665 665 665 225 225 225 225 225 719 719 719 719 719 719 719 719 719 719 719 51 329 329 329 329 329 329 329 924 924 924 924 924 924 924 482 482 482 482 482 482 482 453 453 453 524 524 524 524 728 728 728 728 728 728 643 643 643 643 643 643 643 643 643 643 643 359 359 359 359 359 359 359 99 99 99 380 380 380 380 380 764 764 764 652 652 652 652 652 905 905 905 537 537 665 665 665 665 665 665 665 665 665 665 665 225 225 225 719 719 719 719 719 719 719 719 719 719 719 51 51 51 51 329 329 329 329 994 924 924 924 924 924 924 924 924 482 482 482 482 482 482 453 453 453 453 709 709 709 709 728 728 728 728 728 643 643 643 643 643 643 643 643 643 643 643 359 359 359 359 359 359 359 359 380 380 380 380 380 380 380 380 764 652 652 652 652 997 997 997 997 949 537 537 665 665 665 665 665 665 665 665 665 665 665 665 382 382 382 719 719 719 719 719 719 719 719 719 482 51 51 51 51 329 329 979 979 994 994 994 994 924 924 924 924 915 915 915 915 915 482 453 453 453 453 453 709 709 709 709 709 728 728 728 643 643 643 643 643 643 643 643 643 643 643 643 359 359 359 359 359 359 359 359 380 380 380 380 380 380 380 380 652 652 652 652 997 997 997 997 997 997 997 306 306 665 665 665 665 665 665 665 665 665 665 665 382 382 382 382 719 719 719 719 719 719 482 482 482 482 51 51 449 449 979 979 979 979 994 994 994 994 994 994 915 915 915 915 915 915 915 453 453 453 453 709 709 709 709 709 709 728 728 728 643 643 643 643 643 643 643 643 643 643 643 643 643 359 359 359 359 359 359 359 694 380 380 380 380 380 380 3 3 652 652 997 997 997 997 997 997 997 306 306 306 306 665 665 665 665 665 665 665 665 665 382 382 382 382 382 382 719 719 719 482 482 482 482 482 482 482 449 449 449 449 979 979 979 994 994 994 994 994 994 915 915 915 915 915 915 915 915 453 453 453 709 709 709 709 709 709 709 728 728 663 643 643 643 643 643 643 643 643 643 643 643 884 884 884 359 359 359 359 694 694 694 380 380 380 380 3 3 3 3 997 997 997 997 997 997 997 306 306 306 306 306 306 665 665 665 665 665 665 665 665 382 382 382 382 382 382 382 382 482 482 482 482 482 482 482 482 449 449 449 449 449 979 994 994 994 994 994 994 994 915 915 915 915 915 915 915 317 317 102 709 709 709 709 709 709 709 709 663 663 663 663 643 643 643 643 643 643 643 643 643 884 884 884 884 884 359 359 694 694 694 694 694 694 694 694 3 3 3 1 1 997 997 997 997 997 997 306 306 306 306 306 306 306 306 665 665 665 665 665 382 382 382 382 382 382 382 382 382 482 482 482 482 482 482 482 482 449 449 449 449 449 449 449 994 994 994 994 994 994 915 915 915 915 915 915 317 317 317 102 102 709 709 709 709 709 709 663 663 663 663 663 663 643 643 643 643 643 643 643 884 884 884 884 884 884 884 694 694 694 694 694 694 694 694 694 3 3 1 1 1 1 997 997 997 997 997 306 306 306 306 306 306 306 306 306 665 665 665 574 382 382 382 382 382 382 382 382 382 482 482 482 482 482 482 482 449 449 449 449 449 449 449 449 947 994 994 994 994 994 915 915 915 915 915 317 317 317 317 102 988 988 988 988 709 709 663 663 663 663 663 663 663 663 643 888 888 888 888 888 884 884 884 884 884 884 884 694 694 694 694 694 694 694 694 694 694 1 1 1 1 1 1 997 997 997 997 306 306 306 306 306 306 306 306 966 966 966 574 574 382 382 759 759 759 759 759 759 382 482 482 482 482 482 482 482 449 449 449 449 449 449 449 449 449 947 994 994 994 994 994 915 915 915 915 317 317 317 317 988 988 988 988 988 988 988 663 663 663 663 663 663 663 663 663 888 888 888 888 888 884 884 884 884 884 884 884 694 694 694 694 694 694 694 694 694 694 1 1 1 1 1 1 1 997 997 321 321 306 306 306 306 306 306 966 966 966 966 284 284 382 759 759 759 759 759 759 759 759 526 526 482 482 482 482 482 449 449 449 449 449 449 449 449 449 449 994 994 994 994 994 915 915 915 373 317 317 317 317 988 988 988 988 988 988 988 988 663 663 663 663 663 663 663 663 888 888 888 888 883 883 884 884 884 884 884 884 694 694 694 694 694 694 694 694 694 1 1 1 1 1 1 1 1 1 321 321 321 321 321 306 306 306 306 966 966 966 966 284 284 284 759 759 759 759 759 759 759 526 526 526 526 526 482 482 482 449 449 449 449 449 449 449 449 449 449 449 994 994 994 994 915 373 373 373 373 373 317 988 988 988 988 988 988 988 988 988 663 663 663 663 663 663 663 663 888 883 883 883 883 883 883 883 884 884 884 115 115 115 694 694 694 694 694 694 782 782 1 1 1 1 1 1 1 321 321 321 321 321 321 321 321 306 966 966 966 966 284 284 284 284 252 759 759 759 759 759 526 526 526 526 526 526 526 544 544 544 449 449 449 449 449 449 449 449 449 449 449 3 3 3 373 373 373 373 373 373 373 988 988 988 988 988 988 988 988 988 663 663 663 663 663 663 663 883 883 883 883 883 883 883 883 883 883 778 115 115 115 115 115 115 115 694 694 782 782 782 782 782 782 1 1 1 1 321 321 321 321 321 321 321 321 504 504 504 504 504 284 284 252 252 252 252 512 512 526 526 526 526 526 526 526 526 526 544 544 544 544 449 449 449 449 449 449 449 449 449 3 3 3 3 3 373 373 373 373 373 373 373 988 988 988 988 988 988 988 988 663 663 663 912 912 912 912 883 883 883 883 883 883 883 883 883 883 778 115 115 115 115 115 115 115 115 782 782 782 782 782 782 782 782 782 782 782 321 321 321 321 321 321 321 321 504 504 504 504 504 252 252 252 252 252 252 252 512 526 526 526 526 526 526 526 526 526 526 544 544 544 544 449 449 449 449 449 449 449 3 3 3 3 3 3 373 373 373 373 373 373 373 373 988 988 988 988 988 988 988 912 912 912 912 912 912 419 419 883 883 883 883 883 883 883 883 883 778 115 115 115 115 115 115 115 115 782 782 782 782 782 782 782 782 782 782 782 321 321 321 321 321 321 321 504 504 504 504 504 504 252 252 252 252 252 252 252 526 526 526 526 526 526 526 526 526 526 526 544 544 544 544 544 449 449 449 449 449 3 3 3 3 3 3 3 373 373 373 373 373 373 373 373 988 988 988 988 988 988 988 912 912 912 912 912 419 419 419 883 883 883 883 883 883 883 883 883 778 115 115 115 115 115 115 115 115 782 782 782 782 782 782 782 782 782 782 782 321 321 321 321 321 321 321 504 504 504 504 504 504 252 252 252 252 252 252 252 526 526 526 526 526 526 526 526 526 526 526 544 544 544 544 544 26 26 449 449 3 3 3 3 3 3 3 3 3 373 373 373 373 373 373 373 10 10 10 10 10 988 988 912 912 912 562 562 562 419 419 883 883 883 883 883 883 883 883 883 778 115 115 115 115 115 115 115 115 782 782 782 782 782 782 782 782 782 782 782 782 321 321 321 321 321 333 333 504 504 504 504 504 252 252 252 252 252 252 252 526 526 526 526 526 526 526 526 526 526 526 544 544 544 544 26 26 26 26 3 3 3 3 3 3 3 3 3 3 3 373 373 373 373 373 10 10 10 10 10 10 10 562 562 562 562 562 562 562 562 883 883 883 883 883 883 883 883 883 883 418 418 115 115 115 115 115 115 115 782 782 782 782 782 782 782 782 782 782 782 694 694 321 321 321 333 333 333 333 504 504 504 252 252 252 252 252 252 252 621 621 526 526 526 526 526 526 526 526 526 59 59 544 544 26 26 26 26 26 3 3 3 3 3 3 3 3 3 3 3 31 31 31 31 31 31 10 10 10 10 10 562 562 562 562 562 562 562 562 562 562 883 883 883 883 883 883 883 883 418 418 418 418 115 278 278 278 278 278 782 782 782 782 782 782 782 782 782 782 694 694 694 694 59 59 333 333 333 333 333 504 504 252 252 252 252 252 621 621 621 621 240 526 526 526 526 526 526 526 59 59 59 59 26 26 26 26 26 26 26 3 3 3 3 3 3 3 3 3 31 31 31 31 31 31 31 31 10 10 10 10 562 562 562 562 562 562 562 562 562 562 484 883 883 883 883 883 883 418 418 418 418 418 418 278 278 278 278 278 573 782 782 782 782 782 782 782 782 694 694 694 694 694 59 59 59 333 333 333 333 333 671 671 252 252 252 621 621 621 621 260 260 260 260 526 526 526 61 61 61 61 61 61 26 26 26 26 26 26 26 3 3 3 3 3 3 3 3 31 31 31 31 31 31 31 31 31 421 421 562 562 562 562 562 562 562 562 562 562 562 562 484 484 883 883 883 883 418 418 418 418 418 418 418 278 278 278 278 573 573 573 573 573 782 782 782 782 694 694 694 694 694 694 694 59 59 59 333 227 227 227 671 671 671 326 326 326 621 621 621 260 260 260 260 260 61 61 61 61 61 61 61 61 26 26 26 26 26 26 26 26 3 3 3 3 3 3 724 31 31 31 31 31 31 31 31 421 421 421 421 562 562 562 562 562 562 562 562 562 562 562 562 678 678 883 883 418 418 418 418 418 418 418 418 419 278 278 573 573 573 573 573 573 573 782 782 694 694 694 694 694 694 694 694 59 59 59 227 227 227 227 227 671 671 326 326 326 326 326 364 364 364 364 364 364 61 61 61 61 61 61 61 61 142 142 142 26 26 26 397 397 397 724 724 724 724 724 724 31 31 31 31 31 31 31 421 421 421 421 421 562 562 562 562 562 562 562 562 562 562 562 562 678 678 678 418 418 418 418 418 418 418 418 418 1 1 573 573 573 573 573 573 573 573 573 573 694 694 694 694 694 694 694 694 694 59 227 227 227 227 227 227 227 227 326 326 326 326 326 364 364 364 364 364 458 458 458 61 61 61 61 61 142 142 142 142 142 142 142 397 397 397 397 724 724 724 724 724 31 31 31 31 31 31 421 421 421 421 421 421 562 562 562 562 562 562 562 562 562 562 562 562 678 678 678 80 80 418 418 418 418 418 418 1 1 1 573 573 573 573 573 573 573 573 573 573 694 694 694 694 694 694 694 694 694 227 227 227 227 227 227 227 227 227 227 326 326 326 227 227 364 364 364 458 458 458 458 458 458 458 458 142 142 142 142 142 142 142 142 397 397 397 397 397 724 724 724 724 31 31 31 31 31 31 421 421 421 421 421 421 421 562 562 562 562 562 562 562 562 562 562 562 678 678 80 80 80 80 80 80 418 418 1 1 1 1 1 573 573 573 573 573 573 573 573 573 694 694 694 694 694 694 694 694 227 227 227 227 227 227 227 227 227 227 227 227 227 227 227 227 364 364 458 458 458 458 458 458 458 458 458 142 142 142 142 142 142 142 142 397 397 397 397 397 397 724 724 724 31 31 31 31 31 421 421 421 421 421 421 421 421 562 562 562 562 562 562 562 562 562 562 661 661 678 80 80 80 80 80 80 80 1 1 1 1 1 1 1 573 573 573 573 573 573 573 573 573 694 694 694 694 694 694 227 227 227 227 227 227 227 227 227 227 227 227 227 227 227 227 227 227 458 458 458 458 458 458 458 458 458 458 458 142 142 142 142 142 142 142 397 397 397 397 397 397 397 724 579 579 31 31 31 421 421 421 421 421 421 421 421 421 421 562 562 562 562 562 562 562 562 661 661 661 661 80 80 80 80 80 80 80 80 1 1 1 1 1 1 573 573 573 573 573 573 573 573 573 694 694 694 694 694 694 227 227 227 227 227 227 227 227 227 227 227 227 227 227 227 227 227 227 458 458 458 458 458 458 458 458 458 458 458 142 142 142 142 142 142 142 397 397 397 397 397 397 397 579 579 579 579 579 421 421 421 421 421 421 421 421 421 421 421 562 562 562 562 743 743 743 661 661 661 661 661 661 80 80 80 80 80 80 80 1 1 1 1 1 1 1 573 573 573 573 573 573 573 573 573 694 694 694 694 227 227 227 227 227 227 227 227 227 227 227 227 227 227 227 227 227 227 742 742 458 458 458 458 458 458 458 458 458 458 931 931 142 142 142 142 723 723 723 723 397 397 397 579 579 579 579 579 579 421 421 421 421 421 421 421 421 421 421 421 421 562 562 562 743 743 661 661 661 661 661 661 661 80 80 80 80 80 80 80 80 1 1 1 1 1 1 573 573 573 573 573 573 573 573 369 369 369 369 369 227 227 227 227 227 227 227 227 227 227 227 227 227 227 227 227 227 742 742 742 742 458 458 458 458 458 458 458 458 931 931 931 931 142 142 723 723 723 723 723 723 723 579 579 579 579 579 579 579 579 421 421 421 421 421 421 421 421 421 421 421 743 743 743 743 739 739 661 661 661 661 661 661 661 80 80 80 80 80 80 80 1 1 1 1 1 1 80 80 80 80 573 573 573 369 369 369 369 369 369 227 227 227 227 227 227 227 227 227 227 227 227 227 227 227 227 742 742 742 742 742 742 458 458 458 458 458 458 931 931 931 931 931 931 723 723 723 723 723 723 723 723 579 579 579 579 579 579 579 579 579 421 421 421 421 421 421 421 136 136 136 743 743 743 743 739 739 661 661 661 661 661 661 661 661 80 80 80 80 80 80 395 395 395 395 395 395 80 80 80 80 80 80 80 369 369 369 369 369 369 369 227 227 227 227 227 227 227 227 227 227 227 227 227 227 742 742 742 742 742 742 742 618 618 618 618 618 618 931 931 931 931 931 931 535 723 723 723 723 723 723 723 579 579 579 579 579 579 579 579 352 352 421 421 136 136 136 136 136 136 136 136 743 743 739 739 739 661 661 661 661 661 661 661 661 690 690 690 80 80 395 395 395 395 395 395 395 80 80 80 80 80 80 80 369 369 369 369 369 369 369 227 227 227 227 227 227 227 227 227 227 227 227 227 742 742 742 742 742 742 742 618 618 618 618 618 618 618 618 931 931 931 931 535 535 535 535 535 535 535 535 579 579 579 579 579 579 579 579 352 352 352 352 136 136 136 136 136 136 136 136 136 136 739 368 368 739 739 661 661 661 661 661 661 661 690 690 690 336 336 336 395 395 395 395 395 395 80 80 80 80 80 80 80 369 369 369 369 369 369 369 369 227 227 227 227 227 227 227 227 227 227 227 742 742 742 742 742 742 742 618 618 618 618 618 618 618 618 618 931 931 931 535 535 535 535 535 535 535 535 535 535 579 579 579 579 579 579 352 352 352 352 352 136 136 136 136 136 136 136 136 136 136 368 368 368 368 739 739 661 661 661 661 661 661 690 690 690 336 336 336 336 395 395 395 395 395 80 80 80 80 80 80 80 369 369 369 369 369 369 369 369 367 367 367 367 367 367 367 367 367 367 367 742 742 742 742 742 742 742 618 618 618 618 618 618 618 618 618 409 931 535 535 535 535 535 535 535 535 535 535 535 535 579 579 579 579 579 352 352 352 352 352 136 136 136 136 136 136 136 136 136 136 368 368 368 368 739 739 739 739 739 661 739 739 375 375 336 336 336 336 336 336 336 395 395 395 80 80 80 80 80 80 80 369 369 369 369 369 369 369 367 367 367 367 367 367 367 367 367 367 367 367 136 136 136 136 136 136 136 618 618 618 618 618 618 618 618 409 409 409 535 535 535 535 535 535 535 535 535 535 535 535 535 579 579 579 352 352 352 352 797 797 136 136 136 136 136 136 136 136 136 368 368 368 368 368 739 739 739 739 739 739 739 739 375 336 336 336 336 336 336 336 336 336 336 281 281 281 281 281 281 281 281 150 150 150 150 150 150 150 367 367 367 367 367 367 367 367 367 367 367 367 136 136 136 136 136 136 136 136 618 618 618 618 618 618 409 409 409 409 535 535 535 535 535 535 535 535 535 535 535 535 535 535 579 437 437 352 352 797 797 797 797 136 136 136 136 136 136 136 136 368 368 368 368 368 137 137 137 137 137 137 137 137 336 336 336 336 336 336 336 336 336 336 336 281 281 281 281 281 281 281 281 150 150 150 150 150 150 150 367 367 367 367 367 367 367 367 367 367 367 367 136 136 136 136 136 136 136 136 445 618 618 618 618 409 409 409 409 409 535 535 535 535 535 535 535 535 535 535 535 535 535 535 437 437 437 437 797 797 797 797 797 797 136 136 136 136 136 136 136 368 368 368 368 137 137 137 137 137 137 137 137 137 336 336 336 336 336 336 336 336 336 336 336 281 281 281 281 281 281 281 281 150 150 150 150 150 150 150 367 367 367 367 367 367 367 367 367 367 367 367 136 136 136 136 136 136 136 136 445 445 445 445 445 409 409 409 409 409 535 535 535 535 535 535 535 535 535 535 535 535 535 535 437 437 437 437 797 797 797 797 797 797 797 136 136 136 136 136 136 368 368 368 137 137 137 137 137 137 137 137 137 137 336 336 336 336 336 336 336 336 336 336 336 281 281 281 281 281 281 281 281 281 150 150 150 150 150 150 367 367 367 367 367 367 367 367 367 367 367 367 367 136 136 136 136 136 136 445 445 445 445 445 445 409 409 409 409 409 535 535 535 535 535 535 535 535 535 535 535 535 535 437 437 437 437 437 797 797 797 797 797 797 797 136 136 136 136 136 938 938 938 938 137 137 137 137 137 137 137 137 137 137 336 336 336 336 336 336 336 336 336 336 336 281 281 281 281 281 281 281 281 281 150 150 150 150 150 500 367 367 367 367 367 367 367 367 367 367 367 367 382 382 382 136 136 136 445 445 445 445 445 445 445 445 409 409 409 409 535 535 535 535 535 535 535 535 535 535 535 535 535 437 437 437 437 437 797 797 797 797 797 407 407 407 136 136 136 938 938 938 938 938 137 137 137 137 137 137 137 137 137 137 336 336 336 336 336 336 336 336 336 336 336 281 281 281 281 281 281 281 281 281 281 150 150 500 500 500 500 367 367 367 367 367 367 367 367 367 367 382 382 382 382 382 382 382 445 445 445 445 445 445 445 445 6 6 6 6 6 535 535 535 535 535 535 535 535 535 535 535 535 437 437 437 437 437 175 797 797 797 407 407 407 407 199 199 199 938 938 938 938 938 137 137 137 137 137 137 137 137 137 137 336 336 336 336 336 336 336 336 336 336 336 281 281 281 281 281 281 281 281 281 281 500 500 500 500 500 500 500 367 367 367 367 367 367 367 367 382 382 382 382 382 382 382 382 382 445 445 445 445 445 445 445 6 6 6 6 6 6 535 535 535 535 535 535 535 535 535 535 535 489 437 437 175 175 175 175 407 407 407 407 407 199 199 199 199 938 938 938 938 752 752 137 137 137 137 137 137 137 137 137 336 336 336 336 336 336 336 336 336 336 356 356 281 281 281 281 281 281 281 281 500 500 500 500 500 500 500 500 500 367 367 367 367 367 367 367 382 382 382 382 382 382 382 382 382 445 445 445 445 445 445 6 6 6 6 6 6 6 6 6 535 535 535 535 535 535 535 535 489 489 175 175 175 175 175 175 175 407 407 199 199 199 199 199 199 199 752 752 752 752 752 752 137 137 137 137 137 137 137 490 336 336 336 336 336 336 336 336 336 356 356 356 356 356 356 281 281 281 281 500 500 500 500 500 500 500 500 500 500 500 367 367 367 367 367 367 382 382 382 382 382 382 382 382 382 382 445 445 445 445 6 6 6 6 6 6 6 6 6 6 6 535 535 535 535 535 535 535 489 175 175 175 175 175 175 175 175 175 199 199 199 199 199 199 199 752 752 752 752 752 752 752 137 137 137 137 137 137 490 490 490 490 336 336 336 336 336 356 356 356 356 356 356 356 356 356 281 281 500 500 500 500 500 500 500 500 500 500 500 500 500 367 367 367 367 382 382 382 382 382 382 382 382 382 382 382 382 858 858 6 6 6 6 6 6 6 6 6 6 6 6 854 854 854 854 854 994 994 994 175 175 175 175 175 175 175 175 175 199 199 199 199 199 199 199 752 752 752 752 752 752 752 752 137 137 137 137 490 490 490 490 490 490 336 336 356 356 356 356 356 356 356 356 356 356 356 356 500 500 500 500 500 500 500 500 500 500 500 500 500 500 500 367 367 382 382 382 382 382 382 382 382 382 382 382 382 858 858 858 858 6 6 6 6 6 6 6 6 6 6 6 6 854 854 854 994 994 994 994 994 175 175 175 175 175 175 175 175 199 199 199 199 199 199 528 752 752 752 752 752 752 752 752 957 137 137 490 490 490 490 490 490 490 490 356 356 356 356 356 356 356 356 356 356 356 356 356 90 500 500 500 500 500 500 500 500 500 500 500 500 500 538 538 538 538 382 382 382 382 382 382 382 382 382 382 382 858 858 858 858 858 6 6 6 6 6 6 6 6 6 6 6 854 854 994 994 994 994 994 994 994 597 597 597 597 597 175 933 933 199 199 199 199 199 528 752 752 752 752 752 957 957 957 957 957 957 490 490 490 490 490 490 490 490 356 356 356 356 356 356 356 356 356 356 356 356 90 90 90 500 500 500 500 500 500 500 500 500 500 500 500 538 538 538 538 538 382 382 382 382 382 382 382 382 382 858 858 858 858 858 858 858 6 6 6 6 6 6 6 6 6 6 6 994 994 994 994 994 994 994 994 597 597 597 597 597 933 933 933 933 933 199 199 755 755 752 752 752 752 957 957 957 957 957 957 957 472 472 472 490 490 490 490 255 356 356 356 356 356 356 356 356 356 356 356 90 90 90 90 90 500 500 500 500 500 500 500 500 500 500 538 538 538 538 538 538 382 382 382 382 382 382 382 382 858 858 858 858 858 858 858 858 6 6 6 6 6 6 6 6 6 6 6 994 994 994 994 994 994 994 994 597 597 597 933 933 933 933 933 933 933 933 933 755 755 755 752 752 752 957 957 957 957 957 957 957 472 472 472 472 255 255 255 255 255 356 356 356 356 356 356 356 356 356 90 90 90 90 90 90 598 598 500 500 500 500 500 500 500 538 538 538 538 538 538 538 755 755 755 382 382 382 382 382 858 858 858 858 858 858 858 858 6 6 6 6 6 6 6 6 6 6 994 994 994 994 994 994 994 994 994 597 597 933 933 933 933 933 933 933 933 933 933 755 755 755 755 957 957 957 957 957 957 957 957 957 472 472 472 472 255 255 255 255 255 255 356 356 356 356 356 356 356 90 90 90 90 90 90 90 598 598 598 598 500 500 500 500 500 538 538 538 538 538 538 755 755 755 755 755 755 755 382 397 858 858 858 858 858 858 858 858 858 6 6 6 6 6 6 6 6 6 994 994 994 994 994 994 994 994 994 597 933 933 933 933 933 933 933 933 933 933 933 933 755 755 755 957 957 957 957 957 957 957 957 957 472 472 472 255 255 255 255 255 255 255 255 356 406 406 406 406 406 90 90 90 90 90 90 90 598 598 598 598 598 598 598 500 538 538 538 538 538 538 538 755 755 755 755 755 755 755 755 397 397 858 858 858 858 858 858 858 858 60 6 6 6 6 6 6 6 834 834 994 994 994 994 994 994 994 994 933 933 933 933 933 933 933 933 933 933 933 933 933 755 755 755 957 957 957 957 957 957 957 957 676 676 472 472 255 255 255 255 255 255 255 255 406 406 406 406 406 406 406 90 90 90 90 90 598 598 598 598 598 598 598 598 598 538 538 538 538 538 538 755 755 755 755 755 755 755 755 755 397 397 397 858 858 858 858 858 858 263 263 263 263 6 6 6 6 834 834 834 834 994 994 994 994 994 994 174 933 933 933 933 933 933 933 933 933 933 933 933 933 755 755 755 957 957 957 957 957 957 957 676 676 676 676 255 255 255 255 255 255 255 255 255 406 406 406 406 406 406 406 406 90 90 90 598 598 598 598 598 598 598 598 598 598 538 538 538 538 538 538 755 755 755 755 755 755 755 755 755 397 397 397 162 162 858 858 858 263 263 263 263 263 263 6 6 834 834 834 834 834 994 994 994 994 174 174 174 174 933 933 933 933 933 933 933 933 933 933 933 933 136 136 136 136 957 957 957 957 957 957 676 676 676 175 175 255 255 255 255 255 255 255 406 406 406 406 406 406 406 406 406 406 90 598 598 598 598 598 598 598 598 598 598 598 598 598 58 831 831 831 755 755 755 755 755 755 755 755 755 397 397 162 162 162 162 162 263 263 263 263 263 263 263 263 263 781 781 781 781 781 781 994 174 174 174 174 174 174 174 933 933 933 933 933 933 933 933 933 933 933 136 136 136 136 136 136 957 957 957 957 676 676 175 175 175 175 255 255 255 255 255 255 406 406 406 406 406 406 406 406 406 406 406 598 598 598 598 598 598 598 598 598 598 598 598 598 831 831 831 831 831 755 755 755 755 755 755 755 755 162 162 162 162 162 162 162 263 263 263 263 263 263 263 263 263 781 781 781 781 781 781 174 174 174 174 174 174 174 174 174 933 933 933 933 933 933 933 933 933 136 136 136 136 136 136 136 136 957 957 957 676 175 175 175 175 175 175 255 255 255 255 406 406 406 406 406 406 406 406 406 406 406 406 685 598 598 598 598 598 598 598 598 598 598 598 170 170 831 831 831 831 831 755 755 755 755 755 755 279 162 162 162 162 162 162 162 263 263 263 263 263 263 263 263 263 781 781 781 781 86 86 86 174 174 174 174 174 174 174 174 174 933 933 933 933 933 933 933 136 136 136 136 136 136 136 136 136 136 41 41 41 175 175 175 175 175 175 175 69 203 69 69 406 406 406 406 406 406 406 406 406 406 406 685 685 598 598 598 598 598 598 598 598 598 170 170 170 170 831 831 831 831 831 755 755 755 279 279 279 279 162 162 162 162 162 162 263 263 263 263 263 263 263 263 263 86 86 86 86 86 86 86 174 174 174 174 174 174 174 174 174 6 6 933 933 933 933 327 136 136 136 136 136 136 136 136 136 136 41 41 41 41 175 175 175 175 175 175 203 203 203 203 406 406 406 406 406 406 406 406 406 406 406 685 175 175 598 598 598 598 598 598 598 170 170 170 170 170 170 831 831 831 831 831 279 279 279 279 279 279 279 162 162 162 162 162 263 263 263 263 263 263 263 263 86 86 86 86 86 86 86 86 86 174 174 174 174 174 174 174 6 6 6 6 6 131 327 327 327 136 136 136 136 136 136 136 136 41 41 41 41 41 41 175 175 175 175 203 203 203 203 203 203 203 406 406 406 406 406 406 406 406 406 175 175 175 175 598 598 598 598 598 170 170 170 170 170 170 170 170 831 831 831 831 279 279 279 279 279 279 279 279 162 162 162 93 93 93 263 263 263 263 263 86 86 86 86 86 86 86 86 86 86 86 174 174 174 174 174 6 6 6 6 6 6 131 131 327 327 136 136 136 136 136 136 136 136 41 41 41 41 41 41 41 41 41 41 203 203 203 203 203 203 203 203 406 406 406 406 406 406 406 175 175 175 175 175 175 175 598 598 170 170 170 170 170 170 170 170 170 170 831 831 496 496 279 279 279 279 279 279 279 279 93 93 93 93 93 93 93 93 93 86 86 86 86 86 86 86 86 86 86 86 86 86 174 174 174 174 6 6 6 6 6 6 131 685 685 685 685 136 136 136 136 136 136 41 41 41 41 41 41 41 41 41 41 41 41 203 203 203 203 203 203 203 203 406 406 406 406 406 175 175 175 175 175 175 175 175 175 170 170 170 170 170 170 170 170 170 170 170 170 496 496 496 496 279 279 279 279 279 279 279 93 93 93 93 93 93 93 93 93 93 86 86 86 86 86 86 86 86 86 86 86 86 405 405 405 405 405 6 6 6 6 6 685 685 685 685 685 685 136 136 136 136 41 41 41 41 41 41 41 41 41 41 41 41 41 203 203 203 203 203 203 203 203 841 481 481 481 481 175 175 175 175 175 175 175 175 175 170 170 170 170 170 170 170 170 170 170 170 496 496 496 496 496 496 496 279 279 279 279 93 93 93 93 93 93 93 93 93 93 93 86 86 86 86 86 86 86 86 86 86 86 86 405 405 405 405 405 405 405 405 405 685 685 685 685 685 685 685 865 865 865 865 865 41 41 41 41 41 41 41 41 41 41 41 341 341 203 203 203 203 203 203 841 841 841 841 481 481 175 175 175 175 175 175 175 175 175 170 170 170 170 170 170 170 170 170 170 170 496 496 496 496 496 496 496 496 279 279 93 93 93 93 93 93 93 93 93 93 93 93 93 86 86 86 86 86 86 86 86 86 86 405 405 405 405 405 405 405 405 405 405 405 685 685 685 685 685 685 865 865 865 865 865 41 41 41 41 41 41 41 41 41 41 341 341 341 341 341 341 341 341 341 841 841 841 841 841 481 175 175 175 175 175 175 175 175 175 170 170 170 170 170 170 170 170 170 170 170 496 496 496 496 496 496 496 496 496 496 93 93 93 93 93 93 93 93 93 93 93 93 93 86 86 86 86 86 86 86 86 86 405 405 405 405 405 405 405 405 405 405 405 405 405 685 685 685 685 685 865 865 865 865 397 397 397 41 41 41 41 41 41 41 341 341 341 341 341 341 341 341 341 341 341 841 841 841 841 841 175 175 175 175 175 175 175 175 14 170 170 170 170 170 170 170 170 170 170 496 496 496 496 496 496 496 496 496 496 496 93 93 93 93 93 93 93 93 93 93 93 93 93 86 86 86 86 86 86 86 86 86 405 405 405 405 405 405 405 405 405 405 405 405 405 405 685 685 685 865 865 865 865 865 397 397 397 397 41 41 342 342 342 341 341 341 341 341 341 341 341 341 341 341 341 841 841 841 841 564 564 175 175 175 704 704 704 14 14 14 170 170 170 170 170 170 170 170 170 496 496 496 496 496 496 496 496 496 496 496 93 93 93 93 93 93 93 93 93 93 93 93 93 86 86 86 86 86 86 86 86 721 721 405 405 405 405 405 405 405 405 405 405 405 405 405 405 685 685 865 865 865 865 865 397 397 397 397 397 342 342 342 342 341 341 341 341 341 341 341 341 341 341 341 341 341 841 841 564 564 564 564 704 704 704 704 704 704 14 14 14 170 170 170 170 170 170 170 170 496 496 496 496 496 496 496 496 496 496 496 93 93 93 93 93 93 93 93 93 93 93 93 93 86 86 86 86 86 86 86 230 230 721 721 405 405 405 405 405 405 405 405 405 405 405 405 405 608 508 508 865 865 865 397 397 397 397 397 397 342 342 342 342 341 341 341 341 341 341 341 341 341 341 341 341 341 341 564 564 564 564 564 704 704 704 704 704 704 14 14 14 14 170 170 170 170 170 170 410 