<?xml version="1.0"?>
<VTKFile type="ImageData" version="0.1" byte_order="LittleEndian">
<ImageData WholeExtent="0 100 0 100 0 100" Origin="0 0 0" Spacing="1 1 1">
<Piece Extent="0 100 0 100 0 100">
<PointData>
</PointData>
<CellData Scalars="Spin">
<DataArray type="Int32" Name="Spin" format="ascii" RangeMin="0" RangeMax="10000">
177 177 177 177 177 177 375 375 375 375 375 375 375 375 696 696 696 696 696 696 696 696 696 696 501 501 501 411 402 402 402 402 402 402 402 402 402 402 402 402 402 402 402 402 99 99 99 99 99 99 99 99 99 583 583 760 760 760 760 760 760 760 760 760 760 760 760 587 587 587 587 587 587 587 928 440 440 440 440 440 440 440 440 440 838 838 838 838 853 853 853 853 853 853 853 853 853 177 177 177 177 177 177 177 177 375 375 375 375 375 375 375 375 375 85 85 85 85 696 696 696 696 391 391 391 391 391 391 402 402 402 402 402 402 402 402 402 402 402 402 402 402 402 402 99 99 99 99 99 99 99 99 99 185 185 185 185 760 760 760 760 760 760 760 760 587 587 587 587 587 587 587 587 587 928 440 440 440 440 440 440 440 440 838 838 838 838 838 853 853 853 853 853 853 853 853 853 853 177 177 177 177 177 177 375 375 375 375 375 375 375 375 375 85 85 85 85 85 85 85 391 391 391 391 391 391 391 391 391 402 402 402 402 402 402 402 402 402 402 402 402 402 402 402 388 99 99 99 99 99 99 99 99 185 185 185 185 185 185 760 760 760 760 760 587 587 587 587 587 587 587 587 587 587 928 440 440 440 440 440 440 440 838 838 838 838 838 838 838 853 853 853 853 853 853 853 853 853 177 177 177 69 69 69 375 375 375 375 375 375 375 375 375 85 85 85 85 85 85 85 391 391 391 391 391 391 391 391 391 402 402 402 402 402 402 402 402 402 402 402 402 402 402 388 388 388 388 99 99 99 99 99 185 185 185 185 185 185 185 429 760 760 760 587 587 587 587 587 587 587 587 587 587 587 603 440 440 440 440 440 440 838 838 838 838 838 838 838 838 853 853 853 853 853 853 853 853 853 853 177 69 69 69 69 69 375 375 375 375 375 375 375 85 85 85 85 85 85 85 85 391 391 391 391 391 391 391 391 391 229 229 402 402 402 402 402 402 402 402 402 402 402 402 388 388 388 388 388 99 99 99 185 185 185 185 185 185 185 185 429 429 429 35 35 587 587 587 587 587 587 587 587 587 603 603 603 440 440 440 440 440 838 838 838 838 838 838 838 838 853 853 853 853 853 853 853 853 853 188 188 69 69 69 69 69 69 375 375 375 375 375 375 85 85 85 85 85 85 85 85 391 391 391 391 391 391 391 391 391 229 229 229 402 402 402 402 402 402 402 402 402 402 388 388 388 388 388 388 388 388 185 185 185 185 185 185 185 185 185 429 429 429 35 35 35 587 587 587 587 587 587 587 603 603 603 603 603 440 440 440 440 838 838 838 838 838 838 838 546 546 853 853 853 853 853 853 853 853 188 69 69 69 69 69 69 929 929 375 375 375 94 94 94 85 85 85 85 85 85 973 391 391 391 391 391 391 391 229 229 229 229 229 229 402 402 402 402 402 402 402 402 402 388 388 388 388 388 388 388 388 166 185 185 185 185 185 185 185 185 429 429 35 35 35 35 35 587 587 587 587 603 603 603 603 603 603 603 603 603 245 245 245 838 838 838 838 838 838 546 546 416 416 416 416 416 416 416 416 416 69 480 69 69 69 929 929 929 94 94 94 94 94 94 94 85 85 85 85 973 973 973 391 391 391 391 391 229 229 229 229 229 229 229 229 402 402 402 402 402 402 402 388 388 388 388 388 388 388 388 166 166 166 185 185 185 185 185 185 185 185 429 35 35 35 35 35 587 603 603 603 603 603 603 603 603 603 603 603 245 245 245 245 245 838 838 838 838 546 546 416 416 416 416 416 416 416 416 416 416 480 480 480 480 480 480 929 94 94 94 94 94 94 94 94 94 94 973 973 973 973 973 973 912 912 939 939 939 229 229 229 229 229 229 229 229 402 402 402 402 402 388 388 388 388 388 388 388 388 166 166 166 166 166 185 185 185 185 185 185 185 429 252 35 35 35 35 580 603 603 603 603 603 603 603 603 603 603 603 603 245 245 245 245 838 838 838 546 546 416 416 416 416 416 416 416 416 416 416 416 480 480 480 480 480 480 94 94 94 94 94 94 94 94 94 94 94 973 973 973 973 973 973 912 939 939 939 939 939 229 229 229 229 229 229 229 402 568 568 568 568 568 388 388 388 388 388 388 388 166 166 166 166 621 621 621 621 621 185 185 185 252 252 252 252 252 580 580 580 603 603 603 603 603 603 603 603 603 603 603 245 245 275 275 275 275 275 275 416 416 416 416 416 416 416 416 416 416 416 416 480 480 480 480 480 480 94 94 94 94 94 94 94 94 94 94 94 94 973 973 973 973 973 88 939 939 939 939 939 939 229 229 229 229 229 229 568 568 568 568 568 568 568 388 388 388 388 388 166 166 166 166 621 621 621 621 621 621 621 621 252 252 252 252 252 252 580 580 580 580 603 603 603 603 603 603 603 603 603 603 275 275 275 275 275 275 275 275 275 416 416 416 416 416 416 416 416 416 416 416 480 480 480 480 480 480 94 94 94 94 94 94 94 94 94 94 94 94 973 973 973 973 88 88 939 939 939 939 939 939 939 229 229 229 229 568 568 568 568 568 568 568 568 568 726 726 388 166 166 166 166 621 621 621 621 621 621 621 621 621 252 252 252 252 252 252 580 580 580 580 580 580 603 603 603 603 603 603 603 275 275 275 275 275 275 275 275 275 738 738 416 416 416 416 416 416 416 416 416 416 480 480 480 480 480 94 94 94 94 94 94 94 94 94 94 94 94 94 94 973 88 88 88 88 88 88 939 939 939 939 939 939 229 229 902 568 568 568 568 568 568 568 568 726 726 726 726 726 166 166 621 621 621 621 621 621 621 621 621 621 252 252 252 252 252 252 580 580 580 580 580 580 580 603 603 603 603 603 275 275 275 275 275 275 275 275 275 275 738 738 738 738 416 416 416 416 416 416 416 480 480 480 480 480 480 94 94 94 94 94 94 94 94 94 94 94 94 94 94 88 88 88 88 88 88 88 88 939 939 939 939 939 16 16 16 568 568 568 568 568 568 568 568 726 726 726 726 726 726 621 621 621 621 621 621 621 621 621 621 621 252 252 252 252 252 252 580 580 580 580 580 580 580 580 94 94 94 275 275 275 275 275 275 275 275 275 275 275 738 738 738 738 738 416 416 416 416 416 416 459 480 459 480 480 668 668 94 94 94 94 94 94 94 94 94 94 94 94 94 88 88 88 88 88 88 88 88 88 939 939 939 939 16 16 16 16 568 568 568 568 568 568 568 726 726 726 726 726 602 621 621 621 621 621 621 621 621 621 621 621 252 252 252 252 252 252 580 580 580 580 580 580 580 580 94 94 275 275 275 275 275 275 275 275 275 275 275 738 738 738 738 738 738 738 738 416 416 459 459 459 459 459 459 668 668 668 668 94 94 94 94 94 94 94 94 94 94 94 94 88 88 88 88 88 88 88 88 88 88 939 939 16 16 16 16 16 16 568 568 568 568 568 568 726 726 726 602 602 602 602 621 621 621 621 621 621 621 621 621 621 252 252 252 252 252 252 252 580 580 580 580 580 580 94 94 94 275 275 275 275 275 275 275 275 275 275 275 738 738 738 738 738 738 738 738 738 459 459 459 459 459 459 459 668 668 668 668 668 94 94 94 94 94 94 94 94 94 94 94 88 88 88 88 88 88 88 88 88 88 88 682 16 16 16 16 16 16 16 568 568 568 568 568 602 602 602 602 602 602 602 621 621 621 621 621 621 621 621 621 621 252 252 252 252 252 252 252 580 580 580 580 580 580 94 275 275 275 275 275 275 275 275 275 275 275 275 275 738 738 738 738 738 738 738 738 738 459 459 459 459 459 459 668 668 668 668 668 668 668 94 94 94 94 94 94 94 94 265 265 265 88 88 88 88 88 88 88 88 88 682 682 682 682 16 16 16 16 16 16 568 568 568 602 602 602 602 602 602 602 602 602 621 621 621 621 621 621 621 621 621 252 252 252 252 252 252 252 580 580 580 580 580 580 275 275 275 275 275 275 275 275 275 275 275 275 275 738 738 738 738 738 738 738 738 738 738 459 459 459 459 459 459 668 668 668 668 668 668 668 668 94 94 94 94 94 94 265 265 265 265 265 88 88 88 88 88 88 88 682 682 682 682 682 682 682 16 16 16 700 700 700 700 602 602 602 602 602 602 602 602 602 602 621 621 621 621 621 621 621 621 252 252 252 252 252 252 383 383 580 580 580 580 275 275 275 275 275 275 275 275 275 275 275 275 275 275 738 738 738 738 738 738 738 738 738 738 923 459 459 459 459 79 79 79 668 668 668 668 668 668 668 265 265 265 265 265 265 265 265 265 265 265 88 105 105 105 105 682 682 682 682 682 682 682 682 682 682 700 700 700 700 700 602 602 602 602 602 602 602 602 602 602 602 621 621 621 621 621 621 417 417 252 252 252 383 383 383 383 383 383 383 275 275 275 275 275 275 275 275 275 275 275 275 275 275 275 738 738 738 738 738 738 738 738 738 923 923 923 923 459 79 79 79 79 79 668 668 668 668 668 265 265 265 265 265 265 265 265 265 265 265 265 265 105 105 105 682 682 682 682 682 682 682 682 682 682 682 682 700 700 700 63 63 602 602 602 602 602 602 602 602 602 602 602 621 621 621 621 417 417 417 417 417 383 383 383 383 383 383 383 383 383 275 275 275 275 275 275 275 275 275 275 275 275 275 275 738 738 738 738 738 738 738 738 923 923 923 923 923 79 79 79 79 79 79 79 668 668 668 668 265 265 265 265 265 265 265 265 265 265 265 265 705 705 705 682 682 682 682 682 682 682 682 682 682 682 682 682 63 63 63 63 63 63 978 978 978 978 978 978 602 602 602 136 505 505 505 417 417 417 417 417 417 383 383 383 383 383 383 383 383 383 383 275 275 275 275 275 275 275 275 275 275 275 275 275 738 738 738 738 738 738 738 738 923 923 923 923 79 79 79 79 79 79 79 79 79 79 668 265 265 265 265 265 265 265 265 265 265 265 265 265 705 705 705 682 682 682 682 682 682 682 682 682 682 682 682 63 63 63 63 63 63 63 978 978 978 978 978 978 978 136 136 136 136 505 505 417 417 417 417 417 417 383 383 383 383 383 383 383 383 383 383 383 275 275 275 275 275 275 275 275 275 275 275 275 738 738 738 738 738 738 738 738 822 923 923 79 79 79 79 79 79 79 79 79 79 79 79 265 265 265 265 265 265 265 265 265 265 265 265 705 705 705 705 682 682 682 682 682 682 682 682 682 682 682 682 63 63 63 63 63 63 63 63 978 978 978 978 978 978 136 136 136 136 136 505 417 417 417 417 417 383 383 383 383 383 383 383 383 383 383 383 383 383 849 849 849 849 849 275 275 275 275 282 282 282 282 738 738 738 738 738 822 822 822 822 822 79 79 79 79 79 79 79 79 79 79 717 717 265 265 265 265 265 265 265 265 265 265 265 705 705 705 705 705 682 682 682 682 682 682 682 682 682 682 36 63 63 63 63 63 63 63 63 978 978 978 978 978 978 136 136 136 136 136 505 505 417 417 417 417 383 383 383 383 383 383 383 383 383 383 383 383 383 849 849 849 849 849 849 849 849 282 282 282 282 282 282 848 848 848 822 822 822 822 822 822 869 79 79 79 79 79 79 79 79 717 717 717 717 265 265 265 265 265 265 265 265 265 705 705 705 705 705 705 682 682 682 682 682 682 682 682 682 682 36 36 63 63 63 63 63 63 63 63 978 978 978 978 136 136 136 136 136 136 505 417 417 417 417 383 383 383 383 383 383 383 383 383 383 383 383 383 383 849 849 849 849 849 849 849 849 282 282 282 282 282 282 848 848 374 374 822 822 822 822 822 869 869 79 79 79 79 79 717 717 717 717 717 717 265 265 265 265 265 265 265 135 135 135 135 705 705 705 705 682 682 682 682 682 682 682 682 210 210 210 210 63 63 63 63 63 63 63 63 978 978 978 136 136 136 136 136 136 136 158 158 417 2 2 2 383 383 383 383 383 383 383 383 383 383 383 383 383 849 849 849 849 849 849 849 849 282 282 282 282 282 282 282 374 374 374 822 822 822 822 822 822 869 869 822 79 79 717 717 717 717 717 717 717 717 265 265 135 135 135 135 135 135 135 135 135 705 705 705 547 682 682 682 682 682 682 210 210 210 210 210 210 63 63 63 63 63 63 63 320 320 320 320 136 136 136 136 136 19 158 158 2 2 2 2 2 383 383 383 383 383 383 383 383 383 383 383 383 849 849 849 849 849 849 849 849 282 282 282 282 282 282 282 230 374 374 822 822 822 822 822 822 822 822 822 79 717 717 717 717 923 923 923 923 923 135 135 135 135 135 135 135 135 135 135 135 135 135 547 547 547 547 682 682 682 210 210 210 210 210 210 210 210 63 63 63 63 63 63 320 320 320 320 320 136 136 136 136 158 158 158 158 2 2 2 2 2 383 383 383 383 383 383 383 383 383 383 86 86 86 849 849 849 849 849 849 282 282 282 282 282 282 230 230 230 230 822 822 822 822 822 822 822 822 822 206 206 923 923 923 923 923 923 923 923 135 135 135 135 135 135 135 135 135 135 135 135 135 547 547 547 547 547 547 210 210 210 210 210 210 210 210 210 210 210 63 63 63 320 320 320 320 320 320 320 320 320 158 158 158 158 158 158 2 2 2 2 673 673 673 673 673 673 673 673 673 86 86 86 86 86 849 849 849 849 83 83 83 282 282 282 230 230 230 230 230 230 822 822 822 822 822 822 822 206 206 206 923 923 923 923 923 923 923 923 135 135 135 135 135 135 135 135 135 135 135 135 135 135 547 547 547 547 210 210 210 210 210 210 210 210 210 210 210 210 210 63 320 320 320 320 320 320 320 320 320 320 158 158 158 158 158 158 158 158 2 673 673 673 673 673 673 673 673 673 673 86 86 86 86 86 86 83 83 83 83 83 83 83 282 282 230 230 230 230 230 230 822 822 822 822 822 822 822 206 206 206 923 923 923 923 923 923 923 923 135 135 135 135 135 135 135 135 135 135 135 135 135 135 547 547 547 38 38 210 210 210 210 210 210 210 210 210 210 210 210 210 320 320 320 320 320 320 320 320 320 320 158 158 158 158 158 158 158 158 158 673 673 673 673 673 673 673 673 673 673 673 86 86 86 86 86 83 83 83 83 83 83 83 83 230 230 230 230 230 230 230 350 350 350 822 822 822 206 206 206 206 923 923 923 923 923 923 923 135 135 135 135 135 135 135 135 135 135 135 135 135 135 135 135 386 386 38 38 38 210 210 210 210 210 210 210 210 210 210 210 210 320 320 320 320 320 320 320 320 320 320 158 158 158 158 158 158 158 158 158 673 673 673 673 673 673 673 673 673 673 673 86 86 86 86 86 83 83 83 83 83 83 83 83 83 230 230 230 230 230 350 350 350 350 350 350 206 206 806 206 206 923 923 923 923 923 923 923 135 135 135 135 135 135 135 135 135 135 135 135 135 135 135 135 135 38 38 38 38 210 210 210 210 210 210 210 210 210 210 210 210 320 320 320 320 320 320 320 320 320 320 158 158 158 158 158 158 158 158 158 158 673 673 673 673 673 673 673 673 673 673 86 86 86 86 86 83 83 83 83 83 83 83 83 83 230 230 230 230 230 350 350 350 350 350 350 806 806 806 806 806 923 923 923 923 923 923 923 135 135 135 135 135 135 135 135 135 135 135 135 135 135 135 135 135 38 38 38 38 38 210 210 210 210 210 210 210 210 210 210 201 201 320 320 320 320 320 320 320 320 320 158 158 158 158 158 158 158 158 158 158 673 673 673 673 673 673 673 673 673 294 86 86 86 86 20 20 20 83 83 83 83 83 83 83 230 230 230 230 350 350 350 350 350 350 806 806 806 806 806 806 806 923 923 923 923 923 923 135 135 135 135 135 135 135 135 135 135 135 135 135 135 135 135 135 38 38 38 38 38 38 210 210 210 210 210 210 210 210 201 201 201 201 320 320 320 320 320 320 320 158 158 158 158 158 158 158 158 158 158 158 158 673 673 673 673 673 673 294 294 294 294 294 20 20 20 20 20 20 83 83 83 83 83 83 345 345 345 345 345 350 350 350 350 350 806 806 806 806 806 806 806 438 438 438 923 923 923 135 135 135 135 135 135 135 135 135 135 135 135 135 135 135 135 135 38 38 38 38 38 38 38 210 210 210 210 210 210 201 201 201 201 201 201 201 320 320 320 320 158 158 158 158 158 158 158 158 158 158 158 673 673 673 673 673 673 673 294 294 294 294 294 294 20 20 20 20 20 20 20 83 83 83 83 345 345 345 345 345 345 345 350 350 350 350 806 806 806 806 806 806 806 438 438 438 438 438 971 971 135 135 135 135 135 135 135 135 135 135 135 135 135 135 135 135 38 38 38 38 38 38 38 38 210 210 210 210 201 201 201 201 201 201 201 201 201 320 320 158 158 158 158 158 158 158 158 203 203 203 203 203 673 673 673 673 673 294 294 294 294 294 294 294 20 20 20 20 20 20 20 20 83 83 345 345 345 345 345 345 345 345 345 350 350 350 806 806 806 806 806 806 438 438 438 438 438 438 438 971 971 135 135 135 135 135 135 135 135 135 135 135 135 135 135 614 614 38 38 38 38 38 38 914 914 210 210 201 201 201 201 201 201 201 201 201 201 974 974 974 158 158 158 158 158 158 203 203 203 203 203 673 673 673 673 673 673 294 294 294 294 294 294 294 20 20 20 20 20 20 20 20 328 345 345 345 345 345 345 345 345 345 345 345 350 806 806 806 806 806 806 806 438 438 438 438 438 438 438 438 971 771 135 135 135 135 135 135 135 135 135 135 135 614 614 614 614 614 38 38 38 38 914 914 914 914 914 201 201 201 201 201 201 201 201 201 201 974 974 974 974 158 158 158 158 203 203 203 203 203 203 673 673 673 673 673 673 294 294 294 294 294 173 173 173 20 20 20 20 20 20 328 328 345 345 345 345 345 345 345 345 345 345 345 806 806 806 806 806 806 806 438 438 438 438 438 438 438 438 438 771 771 771 135 135 135 135 135 135 135 135 135 614 614 614 614 614 614 614 413 413 413 914 914 914 914 631 631 201 594 594 594 594 594 594 594 974 974 974 974 974 974 158 1000 1000 203 203 203 203 203 203 673 673 673 673 673 673 92 294 294 294 173 173 173 173 173 20 20 20 20 20 328 328 345 345 345 345 345 345 345 345 345 345 345 806 806 806 806 806 806 806 438 438 438 438 438 438 438 438 438 771 771 771 771 135 135 135 135 135 135 135 883 614 614 614 614 614 614 614 413 413 413 631 631 631 631 631 631 594 594 594 594 594 594 594 594 594 974 974 974 974 974 1000 1000 1000 1000 203 203 203 203 203 673 673 673 673 673 92 92 92 92 173 173 173 173 173 173 20 20 20 20 316 316 316 316 345 345 345 345 345 345 345 345 345 345 806 806 806 806 806 806 438 438 438 438 438 438 438 438 438 438 771 771 771 771 806 806 135 272 272 883 883 883 883 614 614 614 614 614 614 413 413 631 631 631 631 631 631 631 594 594 594 594 594 594 594 594 594 974 974 974 974 264 1000 1000 1000 1000 1000 203 203 203 203 19 673 673 673 92 92 92 92 92 92 173 173 173 173 173 173 20 20 955 316 316 316 316 316 345 345 345 345 345 345 345 345 345 515 806 806 806 806 806 438 438 438 438 438 438 438 438 438 438 771 771 771 806 806 806 806 272 883 883 883 883 883 883 883 614 614 614 413 413 631 631 631 631 631 631 631 631 594 594 594 594 594 594 594 594 594 141 141 141 141 264 264 1000 1000 1000 1000 203 203 19 19 19 19 19 19 92 92 92 92 92 92 292 292 292 292 292 292 955 955 955 316 316 316 316 316 316 345 345 345 345 345 345 345 515 515 515 515 806 806 273 438 438 438 438 438 438 438 438 438 438 771 771 806 806 806 806 806 883 883 883 883 883 883 883 883 883 883 883 413 631 631 631 631 631 631 631 631 631 594 594 594 594 594 594 594 594 141 141 141 141 141 264 264 264 264 1000 1000 213 19 19 19 19 19 19 19 19 92 92 92 92 292 292 292 292 292 292 292 955 955 955 955 316 316 316 316 316 345 345 345 345 345 345 515 515 515 515 515 515 515 515 438 438 438 438 438 438 438 438 438 641 641 806 806 806 806 806 806 883 883 883 883 883 883 883 883 883 883 883 883 631 631 631 631 631 631 631 631 631 594 594 594 594 594 594 594 141 141 141 141 141 141 264 264 264 264 213 213 213 213 19 19 19 19 19 19 19 19 92 92 292 292 292 292 292 292 292 292 955 955 955 955 955 316 316 316 316 316 345 345 345 345 515 515 515 515 515 515 515 515 515 515 438 438 438 438 438 438 438 641 641 641 806 806 806 806 806 883 883 883 883 883 883 883 883 883 883 883 883 883 631 631 631 631 631 631 631 220 220 220 594 594 594 594 594 141 141 141 141 141 141 141 264 264 264 264 213 213 213 213 19 19 19 19 19 19 19 19 19 888 292 292 292 292 292 292 292 292 955 955 955 955 955 955 316 316 316 893 893 345 345 515 515 515 515 515 515 515 515 515 515 515 438 438 438 438 438 438 438 641 641 159 159 159 159 806 883 883 883 883 883 883 883 883 883 883 883 883 883 883 631 631 631 631 631 220 220 220 220 220 220 594 594 141 141 141 141 141 141 141 141 141 141 264 264 213 213 213 213 213 213 19 19 19 19 19 19 19 19 888 292 292 292 292 292 292 292 292 955 955 955 955 955 955 955 893 893 893 893 893 893 515 515 515 515 515 515 515 515 515 515 515 367 367 367 367 438 438 159 159 159 159 159 159 159 159 883 883 883 883 883 883 883 883 883 883 883 883 883 883 883 220 220 220 220 220 220 220 220 220 220 220 141 141 141 141 141 141 141 141 141 141 141 213 213 213 213 213 213 213 213 19 19 19 19 19 19 19 19 888 292 292 292 292 292 292 292 292 955 955 955 955 955 955 955 893 893 893 893 893 893 515 515 515 515 515 515 515 515 515 515 367 367 367 367 367 367 159 159 159 159 159 159 159 159 159 883 883 883 883 883 883 883 883 883 883 883 883 883 883 220 220 220 220 220 220 220 220 220 220 220 220 141 141 141 141 141 141 141 141 141 141 9 9 213 213 213 213 213 213 213 19 19 19 19 19 19 19 462 462 288 288 292 292 292 292 292 292 955 955 955 955 955 955 893 893 893 893 893 893 893 893 515 515 515 515 515 515 515 515 367 367 367 367 367 367 367 159 159 159 159 159 159 159 159 159 159 883 883 883 883 883 883 883 883 883 883 883 883 883 220 220 220 220 220 220 220 220 220 220 220 220 368 368 141 141 141 141 141 141 141 9 9 9 9 213 213 213 213 213 58 58 58 58 58 58 58 462 462 462 288 288 288 288 292 292 292 8 8 955 955 955 955 955 893 893 893 893 893 893 893 893 515 515 515 515 515 515 515 515 367 367 367 367 367 367 367 159 159 159 159 159 159 159 159 159 159 159 883 883 883 883 883 883 883 883 883 883 883 883 220 220 220 220 220 220 220 220 220 220 220 368 368 368 368 141 141 141 141 141 9 9 9 9 9 9 213 213 58 58 58 58 58 58 58 58 58 462 462 462 462 288 288 288 288 288 8 8 8 8 955 955 955 386 386 893 893 893 893 893 893 893 992 992 992 515 515 515 515 367 367 367 367 367 367 367 367 159 159 159 159 159 159 159 159 159 159 159 159 883 883 883 883 883 883 883 883 883 883 883 391 220 220 220 220 220 220 220 220 220 368 368 368 368 368 368 368 141 141 9 9 9 9 9 9 9 9 58 58 58 58 58 58 58 58 58 58 58 462 462 462 288 288 288 288 288 8 8 8 8 8 8 386 386 386 386 893 893 893 893 893 992 992 992 992 992 992 992 367 367 367 367 367 367 367 367 159 159 159 159 159 159 159 159 159 159 159 159 159 159 883 883 883 883 883 883 883 883 883 391 391 391 391 391 391 391 391 391 391 391 368 368 368 368 368 368 368 368 9 9 9 9 9 9 9 9 58 58 58 58 58 58 58 58 58 58 58 58 462 462 462 288 288 288 288 288 8 8 8 8 8 8 386 386 386 386 386 893 893 893 754 992 992 992 992 992 992 992 992 367 619 619 619 619 619 619 619 159 159 159 159 159 159 159 159 159 159 159 159 159 883 883 883 883 883 883 883 883 391 391 391 391 391 391 391 391 391 391 391 391 391 368 368 368 368 368 368 368 345 9 9 9 9 9 9 9 58 58 58 58 58 58 58 58 58 58 58 58 58 462 146 146 146 146 146 146 146 8 8 8 8 8 386 386 386 386 386 513 754 754 754 754 992 992 992 992 992 992 619 619 619 619 619 619 619 619 619 159 159 159 159 159 159 159 159 159 159 159 159 159 159 883 883 883 883 883 883 883 391 391 391 391 391 391 391 391 391 391 391 391 391 391 368 368 368 368 368 345 345 345 9 9 9 9 9 9 58 58 58 58 58 58 58 58 58 58 58 58 58 146 146 146 146 146 146 146 146 146 8 8 8 867 867 386 386 386 513 513 754 754 754 754 754 992 992 992 992 992 619 619 619 619 619 619 619 619 619 619 159 159 159 159 159 159 159 159 159 159 159 159 159 159 883 883 883 883 883 391 391 391 391 391 391 391 391 391 391 391 391 391 391 391 368 368 368 368 345 345 345 345 345 435 435 435 435 435 58 58 58 58 58 58 58 58 58 58 58 58 58 146 146 146 146 146 146 146 146 146 146 146 867 867 867 867 867 867 513 513 754 754 754 754 754 754 992 992 992 619 619 619 619 619 619 619 619 619 619 619 159 159 159 159 159 159 159 159 159 159 159 159 159 159 159 883 883 883 391 391 391 391 391 391 391 391 391 391 391 391 391 391 391 391 440 440 368 345 345 345 345 345 435 435 435 435 435 435 435 58 58 58 58 58 58 58 58 58 58 58 58 146 146 146 146 146 146 146 146 146 146 146 867 867 867 867 867 867 513 754 754 754 754 754 754 754 754 992 619 619 619 619 619 619 619 619 619 619 40 40 40 159 159 159 159 159 159 159 159 159 159 159 159 159 159 41 41 41 41 391 391 391 391 391 391 391 391 391 391 391 391 391 391 440 440 440 440 345 345 345 345 435 435 435 435 435 435 435 435 435 58 58 58 58 58 58 58 58 58 58 146 146 146 146 146 146 146 146 146 146 146 146 146 867 867 867 867 867 867 754 754 754 754 754 754 754 754 754 619 619 619 619 619 619 619 619 40 40 40 40 40 40 40 374 159 159 159 159 159 159 159 159 159 159 159 41 41 41 41 41 391 391 391 391 391 391 391 391 391 391 391 391 440 440 440 440 440 440 345 345 345 435 435 435 435 435 435 435 435 435 58 58 58 58 58 58 58 58 58 58 146 146 146 146 146 146 146 146 146 146 146 146 146 867 867 867 867 867 867 754 754 754 754 754 754 754 754 754 619 619 619 619 619 619 619 40 40 40 40 40 40 40 40 374 374 374 159 159 159 159 159 159 159 159 41 41 41 41 41 41 41 391 391 391 391 391 391 391 391 391 391 440 440 440 440 440 440 440 440 345 345 435 435 435 435 435 435 435 435 472 472 58 58 58 58 58 58 58 58 58 146 146 146 146 146 146 146 146 146 146 146 146 146 867 867 867 867 867 31 31 31 754 754 754 754 754 349 349 619 619 619 619 619 40 40 40 40 40 40 40 40 40 40 374 374 374 374 159 159 159 159 159 597 597 41 41 41 41 41 41 41 41 391 391 391 391 391 391 391 391 440 440 440 440 440 440 440 440 440 440 440 435 435 435 435 435 435 435 472 472 472 472 58 58 58 58 521 58 217 217 217 217 146 146 146 146 146 146 146 146 146 146 146 867 867 867 867 31 31 31 31 31 349 349 349 349 342 342 342 619 619 619 40 40 40 40 40 40 40 40 40 40 40 40 374 374 1 1 1 1 859 859 859 859 41 41 41 41 41 41 41 41 41 391 391 391 391 391 391 440 440 440 440 440 440 440 440 440 440 440 440 435 435 435 435 435 435 472 472 472 472 472 472 521 521 521 521 521 217 217 217 217 217 146 146 146 146 146 146 146 146 146 146 867 867 867 31 31 31 31 31 31 31 349 349 342 342 342 342 501 501 501 40 40 40 40 40 40 40 40 40 40 40 40 374 1 1 1 1 1 859 859 859 859 41 41 41 41 41 41 41 41 41 41 391 391 391 391 391 440 440 440 440 440 440 440 440 440 440 440 440 440 670 670 670 435 472 472 472 472 472 472 472 521 521 521 521 521 521 217 217 217 217 217 146 146 146 146 146 146 146 146 143 143 143 31 31 31 31 31 31 31 31 31 342 342 342 342 342 501 501 40 40 40 40 40 40 40 40 40 40 40 40 40 1 1 1 1 1 1 859 859 859 859 41 41 41 41 41 41 41 41 41 41 41 391 391 391 440 440 440 440 440 440 440 440 440 440 440 440 440 670 670 670 670 670 472 472 472 472 472 472 472 521 521 521 521 521 521 217 217 217 217 217 217 146 146 146 146 146 146 143 143 143 143 31 31 31 31 31 31 31 31 31 342 342 342 342 342 501 501 40 40 40 40 40 40 40 40 40 40 40 40 40 609 1 1 1 1 1 859 859 859 859 41 41 41 41 41 41 41 41 41 41 41 351 351 440 440 440 440 440 440 440 440 440 440 440 440 440 440 670 670 670 670 670 670 472 472 472 472 472 472 521 521 521 521 521 521 217 217 217 217 217 247 247 247 146 146 146 143 143 143 143 143 270 31 31 31 31 31 31 31 31 342 342 342 342 342 501 40 40 40 40 40 40 40 40 40 40 40 40 40 609 609 609 1 1 1 1 859 859 859 636 41 41 41 41 41 41 41 41 41 41 351 351 351 351 440 440 440 440 440 440 440 440 440 440 440 440 440 670 670 670 670 670 670 472 472 472 472 472 472 521 521 521 521 521 521 217 217 217 217 247 247 247 247 247 247 247 143 143 143 143 270 270 270 31 31 31 31 31 31 31 342 342 342 342 342 40 40 40 40 40 40 40 40 40 40 40 40 40 609 609 609 609 609 1 1 1 636 636 636 636 636 41 41 41 41 41 41 41 41 351 351 351 351 351 351 440 440 440 440 440 440 440 440 440 440 191 191 670 670 670 670 670 670 670 948 948 948 948 948 521 521 521 521 887 887 887 217 217 247 247 247 247 247 247 247 247 143 143 270 270 270 270 270 248 248 248 248 248 31 31 342 342 342 342 342 40 40 40 40 40 40 40 40 40 40 40 40 40 609 609 609 609 609 923 923 636 636 636 636 636 636 636 41 41 41 41 41 41 351 351 351 351 351 351 351 440 440 440 440 191 191 191 191 191 191 191 191 191 770 770 670 670 670 670 948 948 948 948 125 125 521 887 887 887 887 887 887 887 247 247 247 247 247 247 247 125 125 270 270 270 270 270 270 248 248 248 248 248 248 248 342 342 809 809 809 40 40 40 40 40 40 40 40 40 40 40 40 609 609 609 609 609 923 923 923 636 636 636 636 636 636 636 636 41 41 41 41 351 351 351 351 351 351 351 351 351 191 191 191 191 191 191 191 191 191 191 191 191 467 770 770 770 770 770 125 125 125 125 125 125 887 887 887 887 887 887 887 887 887 247 247 247 247 125 125 125 125 125 270 270 270 270 248 248 248 248 248 248 248 248 248 809 809 809 809 867 40 40 40 40 40 40 40 40 40 40 40 609 609 609 609 923 923 923 923 923 636 636 636 636 636 636 636 636 41 41 351 351 351 351 351 351 351 351 351 191 191 191 191 191 191 191 191 191 191 191 191 191 467 467 770 770 770 967 125 125 125 125 967 967 887 887 887 887 887 887 887 887 887 887 247 125 125 125 125 125 125 125 125 270 270 45 45 248 248 248 248 248 248 248 544 544 809 809 809 867 867 867 867 867 40 40 40 40 40 40 923 923 923 923 923 923 923 923 923 923 636 636 636 636 636 636 636 636 464 351 351 351 351 351 351 351 351 351 922 191 191 191 191 191 191 191 191 191 191 191 191 191 467 467 467 770 770 967 967 967 967 967 967 967 887 887 887 887 887 887 887 887 887 887 887 125 125 125 125 125 125 125 125 45 45 45 45 45 45 45 45 45 248 544 544 544 809 809 809 867 867 867 867 867 867 230 230 230 230 230 923 923 923 923 923 923 923 923 923 923 636 636 636 636 636 636 636 636 464 351 351 351 351 351 351 351 351 922 922 191 191 191 191 191 191 191 191 191 191 191 191 191 467 467 467 467 967 967 967 967 967 967 967 887 887 887 887 887 887 887 887 887 887 887 887 125 125 125 125 125 125 125 45 45 45 45 45 45 45 45 45 45 45 544 544 544 809 809 809 867 867 867 867 867 230 230 230 230 230 230 923 923 923 923 923 923 923 923 923 923 636 636 636 636 636 636 636 636 464 351 351 351 351 351 351 351 351 922 922 191 191 191 191 191 191 191 191 191 191 191 191 191 467 467 467 467 967 967 967 967 967 967 967 887 887 887 887 887 887 887 887 887 887 887 887 887 125 125 125 125 125 125 45 45 45 45 45 45 45 45 45 45 45 45 544 544 809 809 809 867 867 867 867 867 230 230 230 230 230 230 923 923 923 923 923 923 923 923 923 923 630 636 636 636 636 636 636 636 464 351 351 351 351 351 351 351 32 922 191 191 191 191 191 191 191 191 191 191 191 191 191 191 467 467 467 467 967 967 967 967 967 967 967 887 887 887 887 887 887 887 887 887 887 887 887 887 125 125 125 125 125 45 45 45 45 45 45 45 45 45 45 45 45 45 45 544 544 809 867 867 867 867 867 230 230 230 230 230 230 230 923 923 923 923 923 923 923 923 923 630 630 630 630 636 636 636 636 636 464 351 351 351 351 351 32 32 32 32 191 191 191 191 191 191 191 191 191 191 191 191 191 191 467 467 467 967 967 967 967 967 967 967 887 887 887 887 887 887 887 887 887 887 887 887 887 887 787 787 787 787 787 787 45 45 45 45 45 45 45 45 45 45 45 45 45 544 544 544 867 867 867 867 61 230 230 230 230 230 230 230 230 923 923 923 923 923 923 923 630 630 630 630 630 630 636 636 636 38 38 351 351 351 32 32 32 32 32 32 32 191 191 191 191 191 191 191 191 191 191 191 191 191 467 467 967 967 967 967 967 967 967 967 887 887 887 887 887 887 887 887 887 887 887 887 887 787 787 787 787 787 787 787 787 45 45 45 45 45 45 45 45 45 45 45 45 544 544 61 61 61 61 867 61 230 230 230 230 230 230 230 230 923 923 923 923 923 923 630 630 630 630 630 630 38 38 38 38 38 38 32 32 32 32 32 32 32 32 32 32 32 191 191 191 191 191 191 191 191 191 191 191 191 257 257 257 257 967 967 967 967 967 887 887 887 887 887 887 887 887 887 887 887 887 688 688 787 787 787 787 787 787 787 787 45 45 45 45 45 45 45 45