<?xml version="1.0"?>
<VTKFile type="ImageData" version="0.1" byte_order="LittleEndian">
<ImageData WholeExtent="0 100 0 100 0 100" Origin="0 0 0" Spacing="1 1 1">
<Piece Extent="0 100 0 100 0 100">
<PointData>
</PointData>
<CellData Scalars="Spin">
<DataArray type="Int32" Name="Spin" format="ascii" RangeMin="0" RangeMax="10000">
811 811 811 811 811 811 290 290 290 290 290 813 813 813 813 813 813 813 813 813 813 813 813 53 183 183 183 183 183 183 183 183 183 183 183 739 739 739 243 243 243 243 243 243 243 243 286 286 286 286 286 286 286 286 286 713 713 713 713 713 713 713 713 713 608 608 608 608 608 608 992 992 992 992 992 992 992 992 992 992 992 992 182 182 182 182 182 182 14 14 14 14 386 386 386 386 386 386 386 811 811 811 811 811 811 290 290 290 290 290 290 290 813 813 813 813 813 813 813 813 813 813 813 183 183 183 183 183 183 183 183 183 183 183 183 183 739 243 243 243 243 243 243 243 243 184 184 286 286 286 286 286 286 286 286 713 713 713 713 713 713 713 713 270 270 270 608 608 608 992 992 992 992 992 992 992 992 992 992 992 992 992 182 182 182 182 182 182 182 14 14 386 386 386 386 386 386 386 386 386 386 811 811 811 290 290 290 290 290 290 290 290 290 813 813 813 813 813 813 813 813 813 814 183 183 183 183 183 183 183 183 183 183 183 183 885 885 243 243 243 243 243 243 243 184 184 184 184 286 286 286 286 286 915 915 915 915 713 713 713 713 713 270 270 270 270 270 608 992 992 992 992 992 992 992 992 992 992 992 992 992 992 182 182 182 182 182 182 182 182 386 386 386 386 386 386 386 386 386 386 386 386 386 290 290 290 290 290 290 290 290 290 290 290 813 813 813 813 813 813 813 814 814 183 183 183 183 183 183 183 183 183 183 183 885 885 885 134 134 134 243 243 243 184 184 184 184 184 286 286 286 286 915 915 915 915 915 915 915 713 713 270 270 270 270 270 270 992 992 992 992 992 992 992 992 992 992 992 992 992 992 182 182 182 182 182 182 182 182 182 925 386 386 386 386 386 386 386 386 386 386 386 386 290 290 290 290 290 290 290 290 290 290 290 813 813 813 813 813 723 723 723 723 723 183 183 183 183 183 183 183 183 183 811 811 885 134 134 134 134 134 243 243 184 184 184 184 617 617 286 286 915 915 915 915 915 915 915 915 915 884 270 270 270 270 270 270 992 992 992 992 992 992 992 992 992 992 992 992 992 992 182 182 182 182 182 182 182 182 925 925 386 386 386 386 386 386 386 386 386 386 386 565 565 290 290 290 290 290 290 290 290 290 290 45 45 813 813 723 723 723 723 723 723 723 183 183 183 183 183 183 811 811 811 811 811 134 134 134 134 134 134 134 184 184 184 617 617 617 617 915 915 915 915 915 915 915 915 915 915 884 884 270 270 270 270 270 992 992 992 992 992 992 992 992 992 992 992 992 992 992 182 182 182 182 182 182 182 925 925 925 925 386 386 386 386 386 386 386 386 386 565 565 565 565 290 290 290 290 290 290 290 290 290 45 45 45 723 723 723 723 723 723 723 478 643 643 643 643 643 643 811 811 811 811 811 134 134 134 134 134 134 134 134 732 732 617 617 617 617 732 915 915 915 915 915 915 915 915 915 915 884 884 40 40 40 109 109 992 992 992 992 992 992 992 992 992 992 992 992 992 182 182 182 182 182 182 182 925 925 925 925 925 386 386 386 386 386 386 386 565 565 565 565 565 565 290 290 290 290 290 290 290 290 45 45 45 723 723 723 723 478 478 478 478 643 643 643 643 643 643 643 643 811 811 440 134 134 134 134 134 134 134 732 732 732 732 617 617 617 732 915 915 915 915 915 915 915 915 915 915 884 40 40 40 109 109 109 109 109 992 992 992 992 992 992 992 992 992 992 417 417 417 417 417 417 417 417 925 925 925 925 925 386 386 386 386 386 386 386 565 565 565 565 565 565 565 290 290 290 127 127 127 127 127 45 45 45 478 478 478 478 478 478 478 643 643 643 643 643 643 643 643 440 440 440 440 134 134 134 134 134 134 732 732 732 732 732 617 732 732 915 915 915 915 915 915 915 915 915 915 222 40 40 40 109 109 109 109 109 109 992 992 992 992 992 992 367 367 367 417 417 417 417 417 417 417 417 417 925 925 925 925 925 386 386 386 386 386 565 565 565 565 565 565 565 565 127 127 127 127 127 127 127 127 127 127 478 478 478 478 478 478 478 478 643 643 643 643 643 643 643 643 440 440 440 440 440 134 134 134 134 746 746 732 732 732 732 732 617 732 915 915 915 915 915 915 915 915 915 222 222 222 222 40 109 109 109 109 109 109 109 992 992 992 992 367 367 367 367 417 417 417 417 417 417 417 417 417 417 925 925 925 605 605 386 386 386 565 565 565 565 565 565 565 565 565 127 127 127 127 127 127 127 127 127 127 478 478 478 478 478 478 478 478 643 643 643 643 643 643 643 440 440 440 440 440 440 440 134 134 746 746 746 746 732 732 732 732 732 732 717 717 915 915 915 915 915 915 222 222 222 222 222 222 109 109 109 109 109 109 109 109 109 992 367 367 367 367 367 417 417 417 417 417 417 417 417 417 417 417 417 605 605 605 605 605 565 565 565 565 565 565 565 565 565 127 127 127 127 127 127 127 127 127 127 127 478 478 478 478 478 478 478 478 643 643 643 643 643 643 643 440 440 440 440 440 440 440 440 404 404 746 746 746 746 732 732 732 732 717 717 717 717 717 717 717 915 222 222 222 222 222 222 222 109 109 109 109 109 109 109 109 109 109 367 367 367 367 367 417 417 417 417 417 417 417 417 417 417 417 417 605 605 605 605 605 565 565 565 565 565 565 565 565 565 127 127 127 127 127 127 127 127 127 127 127 127 478 478 478 478 478 478 478 643 643 643 643 643 643 643 440 440 440 440 440 440 440 404 404 404 404 404 746 746 70 70 70 70 717 717 717 717 717 717 717 717 222 222 222 222 222 222 222 109 109 109 109 109 109 109 109 109 109 109 367 367 367 367 417 417 417 417 417 417 417 417 417 417 417 417 605 605 605 605 605 565 565 565 565 565 565 565 565 565 127 127 127 127 127 127 127 127 127 127 127 127 478 478 478 478 478 478 478 643 643 643 643 643 643 440 440 440 335 335 335 335 335 404 404 404 404 404 404 70 70 70 70 70 717 717 717 717 717 717 717 717 222 222 222 222 222 222 222 109 109 109 109 109 109 109 109 109 109 694 694 694 367 367 417 417 417 417 417 417 417 417 417 417 417 417 605 605 605 605 605 565 565 565 565 565 565 565 565 565 127 127 127 127 127 127 127 127 127 127 127 326 326 326 326 478 478 478 67 67 67 67 67 643 335 335 335 335 335 335 335 335 335 404 404 404 404 404 404 70 70 70 70 70 717 717 717 717 717 717 717 774 774 774 222 222 222 222 222 109 109 109 109 109 109 109 109 109 694 694 694 694 694 694 417 417 417 417 417 417 417 417 417 417 417 317 605 605 605 605 605 565 565 565 565 565 565 565 565 565 565 127 127 127 127 127 127 127 127 127 326 326 326 326 326 326 326 67 67 67 67 67 67 67 335 335 335 335 335 335 335 335 335 404 404 404 404 404 404 70 70 70 70 70 70 717 717 717 717 717 774 774 774 774 774 774 222 222 164 164 164 164 109 109 109 109 109 694 694 694 694 694 694 694 694 417 417 417 417 417 417 317 317 317 317 317 317 605 605 605 552 565 565 565 565 565 565 565 565 565 703 703 127 127 127 127 127 127 127 326 326 326 326 326 326 326 326 326 67 67 67 67 67 67 335 335 335 335 335 335 335 335 335 404 404 404 404 404 404 404 70 70 70 70 70 717 717 717 717 717 774 774 774 774 774 774 774 164 164 164 164 164 164 164 164 164 164 694 694 694 694 694 694 694 694 694 417 417 417 317 317 317 317 317 317 317 317 317 552 552 552 552 565 565 565 565 565 565 565 703 703 703 703 703 703 703 127 127 326 326 326 326 326 326 326 326 326 326 326 67 67 67 67 335 335 335 335 335 335 335 335 335 335 404 404 404 404 404 404 404 70 70 70 70 638 638 638 717 717 457 774 774 774 774 774 774 774 164 164 164 164 164 164 164 164 164 164 694 694 694 694 694 694 694 694 694 449 449 317 317 317 317 317 317 317 317 317 552 552 552 552 552 552 565 337 337 337 337 703 703 703 703 703 703 703 703 703 703 326 326 326 326 326 326 326 326 326 326 326 67 67 67 67 335 335 335 335 335 335 335 335 335 335 404 404 404 404 404 404 404 70 70 70 638 638 638 638 638 457 457 457 774 774 774 774 774 774 164 164 164 164 164 164 164 164 164 633 633 694 694 694 694 694 694 694 449 449 449 449 317 317 317 317 317 317 317 317 552 552 552 552 552 552 552 337 337 337 337 703 703 703 703 703 703 703 703 703 703 326 326 326 326 326 326 326 326 326 326 326 326 67 67 67 335 335 335 335 335 335 335 335 335 929 929 404 404 404 404 404 404 70 70 638 638 638 638 638 638 638 457 457 457 774 774 774 18 18 623 623 623 164 164 164 164 164 633 633 633 633 694 694 694 694 694 449 449 449 449 449 449 317 317 317 317 317 317 552 552 552 552 552 552 552 552 337 337 337 337 337 703 703 703 703 703 703 703 703 703 326 326 326 326 326 326 326 326 326 326 326 326 326 487 487 335 335 335 335 335 335 335 335 929 929 929 929 404 404 404 217 217 217 638 638 638 638 638 638 638 638 638 457 457 457 18 18 18 623 623 623 623 623 623 623 623 633 633 633 633 633 633 694 694 449 449 449 449 449 449 449 449 449 449 317 317 317 552 552 552 552 552 552 552 552 552 337 337 337 337 337 703 703 703 703 703 703 703 703 703 326 326 326 326 326 326 326 326 326 326 326 326 326 487 487 487 487 335 335 335 335 335 929 929 929 929 929 929 217 217 217 217 217 638 638 638 638 638 638 638 638 638 457 457 957 957 18 18 623 623 623 623 623 623 623 623 633 633 633 633 633 633 633 449 449 449 449 449 449 449 449 449 449 449 449 317 317 552 552 552 552 552 552 552 552 552 552 337 337 337 337 703 703 703 703 703 703 703 703 703 326 326 326 326 326 326 326 326 326 326 326 326 487 487 487 487 487 568 568 568 568 929 929 929 929 929 929 929 217 217 217 217 217 638 638 638 638 638 638 638 638 638 957 957 957 957 957 18 623 623 623 623 623 623 623 623 633 633 633 633 633 633 633 449 449 449 449 449 449 449 449 449 449 449 449 449 552 552 552 552 552 552 552 552 552 552 552 246 246 246 246 246 703 703 703 703 703 703 703 703 326 326 326 326 326 326 326 326 326 326 326 326 487 487 487 487 487 568 568 568 568 568 929 929 929 929 929 217 217 217 217 217 217 638 638 638 638 638 638 638 638 638 957 957 957 957 957 957 623 623 623 623 623 623 623 623 633 633 633 633 633 633 633 449 449 449 449 449 449 449 449 449 449 449 449 449 449 552 552 552 552 552 552 552 552 552 467 246 246 246 246 246 246 703 703 703 703 703 703 703 326 326 326 326 326 326 326 326 326 326 326 688 487 487 487 487 487 568 568 568 568 568 568 929 929 929 217 217 217 217 217 217 217 217 638 638 638 638 638 638 638 638 957 957 957 957 957 957 623 623 623 623 623 623 623 623 633 633 633 633 633 633 633 449 449 449 449 449 449 449 449 449 449 449 449 449 449 921 552 552 552 552 552 552 552 467 467 246 246 246 246 246 246 437 437 703 703 703 703 703 326 326 326 326 326 326 326 326 326 688 688 688 688 487 487 487 487 568 568 568 568 568 568 568 929 383 217 217 217 217 217 217 217 217 638 638 638 638 638 638 638 638 957 957 957 957 957 957 957 623 623 623 623 623 623 623 633 633 633 633 633 633 449 449 449 449 449 449 449 449 449 449 449 449 449 449 921 921 921 552 552 552 552 467 467 467 467 246 246 246 246 246 246 437 437 437 703 703 703 134 326 326 326 326 326 688 688 688 688 688 688 688 706 706 706 706 706 568 568 568 568 568 568 568 383 383 383 217 217 217 217 217 217 381 381 381 381 381 638 638 638 638 957 957 957 957 957 957 957 623 623 623 623 623 623 623 623 633 633 633 633 633 449 449 449 449 449 449 449 449 449 449 449 449 449 449 921 921 921 467 467 467 467 467 467 467 467 467 246 246 246 246 246 437 437 437 703 703 134 134 134 134 326 326 688 688 688 688 688 688 688 706 706 706 706 706 706 706 568 568 568 568 568 383 383 383 383 383 217 217 217 381 381 381 381 381 381 381 381 381 381 381 957 957 957 957 957 957 957 957 623 623 623 623 623 623 623 965 965 965 965 965 449 449 449 449 449 449 449 449 449 449 449 449 449 921 921 921 921 467 467 467 467 467 467 467 467 467 467 246 246 246 246 437 437 471 437 134 134 134 134 134 134 134 688 688 688 688 688 688 706 706 706 706 706 706 706 706 706 568 568 568 383 383 383 383 383 383 383 217 381 381 381 381 381 381 381 381 381 381 381 381 381 957 957 957 957 957 957 957 623 623 623 623 623 623 965 965 965 965 965 965 449 449 449 449 449 449 449 449 449 449 449 449 626 626 626 921 689 689 689 689 689 467 467 467 467 467 467 492 492 492 492 492 471 471 471 134 134 134 134 134 134 134 134 688 688 688 688 706 706 706 706 706 706 706 706 706 706 706 383 383 383 383 383 383 383 383 383 383 381 381 381 381 381 381 381 381 381 381 381 381 381 957 957 957 957 957 957 957 793 793 793 793 793 793 965 965 965 965 965 965 965 449 449 449 449 449 449 449 176 176 176 626 626 626 626 689 689 689 689 689 689 689 689 467 467 467 492 492 492 492 492 492 471 471 251 251 134 134 134 134 134 134 134 134 688 688 706 706 706 706 706 706 706 706 706 706 706 706 383 383 383 383 383 383 383 383 383 383 381 381 381 381 381 381 381 381 381 381 381 381 381 381 957 957 957 957 957 67 793 793 793 793 793 793 965 965 965 965 965 965 965 363 363 303 303 303 303 176 176 176 176 176 626 626 604 604 689 689 689 689 689 689 689 689 689 492 492 492 492 492 492 492 4 4 251 251 251 251 134 134 134 134 134 849 849 849 706 706 706 706 706 706 706 706 706 706 706 706 383 383 383 383 383 383 383 383 383 383 381 381 381 381 381 381 381 381 381 381 381 381 381 381 381 957 957 957 67 67 793 793 793 793 793 793 793 965 965 965 965 965 363 363 363 363 303 303 303 176 176 176 176 176 604 604 604 604 689 689 689 689 689 689 689 689 689 492 492 492 492 492 492 492 4 251 251 251 251 251 251 134 849 849 849 849 849 849 849 706 706 706 706 706 706 706 706 706 706 706 706 383 383 383 383 383 383 383 383 383 381 381 381 381 381 381 381 381 381 381 381 381 381 381 381 364 364 364 67 67 793 793 793 793 793 793 793 23 23 23 23 23 363 363 363 363 363 303 303 176 176 176 176 176 604 604 604 604 604 689 689 689 689 689 689 689 507 717 717 717 717 717 717 717 251 251 251 251 251 251 251 251 849 849 849 849 849 849 849 849 706 706 706 706 706 706 706 706 706 706 706 383 383 383 383 383 383 383 383 383 785 785 381 381 381 381 381 381 381 381 381 381 381 381 364 364 364 364 364 67 793 793 793 793 793 793 793 23 23 23 23 23 363 363 363 363 363 363 176 176 176 176 176 604 604 604 604 604 604 604 689 689 689 689 689 689 507 507 717 717 717 717 717 717 251 251 251 251 251 251 251 220 220 849 849 849 849 849 849 849 849 706 706 706 706 706 706 706 706 706 706 383 383 383 383 383 383 383 383 785 785 785 785 785 381 381 381 381 381 381 381 381 381 381 364 364 364 364 364 364 793 793 793 793 793 793 23 23 23 23 23 23 363 363 363 363 363 363 363 176 176 176 604 604 604 604 604 604 604 604 689 689 689 689 507 507 507 507 507 717 717 717 717 717 656 251 251 251 251 251 220 220 220 220 849 849 849 849 849 849 849 849 706 706 706 706 706 706 706 706 706 383 383 383 383 383 383 383 383 785 785 785 785 785 785 381 381 381 381 381 381 381 381 381 364 364 364 364 364 364 415 415 415 415 793 793 23 23 23 23 23 23 363 363 363 363 363 363 363 363 604 604 604 604 604 604 604 604 604 604 604 507 507 507 507 507 507 507 507 507 717 717 717 656 656 656 656 251 251 220 220 220 220 220 849 849 849 849 849 849 849 849 849 706 706 706 706 706 706 706 706 325 325 325 325 383 383 904 904 904 785 785 785 785 785 785 938 938 381 381 381 381 381 364 364 364 364 364 364 415 415 415 415 415 415 415 23 23 23 23 23 23 23 363 363 363 363 363 363 604 604 604 604 604 604 604 604 604 604 604 604 507 507 507 507 507 507 507 507 507 507 717 656 656 656 656 656 656 220 220 220 220 220 220 849 849 849 849 849 849 849 849 849 706 706 706 706 706 706 706 325 325 325 505 505 505 904 904 904 904 904 785 785 785 785 785 938 938 938 938 838 838 838 838 838 364 364 364 364 415 415 415 415 415 415 415 381 381 23 23 23 23 23 363 363 363 363 363 363 604 604 604 604 604 604 604 604 604 604 604 604 507 507 507 507 507 507 507 507 507 507 507 656 656 656 656 656 656 220 220 220 220 220 220 849 849 849 849 849 849 849 849 849 849 728 728 728 728 728 728 505 505 505 505 505 505 904 904 904 904 904 904 785 785 785 785 938 938 938 838 838 838 838 838 838 838 364 571 571 571 571 415 415 415 415 381 381 381 381 381 23 23 835 835 363 363 363 363 407 407 604 604 604 604 604 604 604 604 604 604 604 507 507 507 507 507 507 507 507 507 507 507 656 656 656 656 656 220 220 220 220 220 220 220 849 849 849 849 849 849 849 849 849 849 728 728 728 728 728 728 505 505 505 505 505 505 904 904 904 904 904 904 904 904 785 785 938 938 838 838 838 838 838 838 838 838 838 571 571 571 571 571 571 571 381 381 381 381 381 381 381 381 835 835 835 363 363 407 407 407 407 604 604 604 604 604 604 604 604 604 604 507 507 507 507 507 507 507 507 507 507 507 656 656 656 656 656 220 220 220 220 220 220 220 849 849 849 849 849 849 849 849 849 728 728 728 728 728 728 728 505 505 505 505 505 505 904 904 904 904 904 904 904 904 904 904 838 838 838 838 838 838 838 838 838 838 838 571 571 571 571 571 571 571 381 381 381 381 381 381 381 381 835 835 835 835 407 407 407 407 407 407 604 604 604 604 604 604 604 604 604 507 507 507 507 507 507 507 507 507 507 507 602 602 602 602 602 220 220 220 220 220 220 220 849 849 849 849 849 849 849 849 728 728 728 728 728 728 728 728 505 505 505 505 505 505 904 904 904 904 904 904 904 904 904 904 838 838 838 838 838 838 838 838 838 838 838 571 571 571 213 213 213 213 381 381 381 381 381 381 381 381 835 835 835 835 407 407 407 407 407 407 604 604 604 604 604 604 604 604 604 507 507 507 507 507 507 507 507 507 507 602 602 602 602 602 55 55 220 220 220 220 220 220 849 849 849 849 849 849 849 728 728 728 728 728 728 728 728 728 505 505 505 505 505 505 904 904 904 904 904 904 904 904 904 904 838 838 838 838 838 838 838 838 838 838 838 213 213 213 213 213 213 213 213 381 381 381 381 381 381 381 835 332 332 332 407 407 407 407 407 407 690 690 690 604 604 604 604 604 898 898 507 507 507 507 507 507 507 507 602 602 602 602 602 55 55 55 479 479 479 220 220 220 44 44 849 849 849 849 728 728 728 728 728 728 728 728 728 728 505 505 505 505 505 505 904 904 904 904 904 904 904 904 904 123 838 838 838 838 838 838 838 838 838 838 838 213 213 213 213 213 213 213 213 78 78 78 78 381 381 381 332 332 332 332 332 407 407 407 407 690 690 690 690 690 690 604 604 898 898 898 898 898 507 507 507 949 949 949 602 602 602 602 602 55 55 479 479 479 479 479 479 44 44 44 44 44 44 44 44 728 728 728 728 728 728 728 728 728 505 505 505 505 505 505 904 904 904 904 904 904 904 904 123 123 123 838 838 838 838 838 838 838 838 838 838 213 213 213 213 213 213 213 78 78 78 78 78 78 78 332 332 332 332 332 332 332 407 407 407 690 690 690 690 690 690 690 898 898 898 898 898 898 898 507 949 949 949 949 949 602 602 602 602 55 479 479 479 479 479 479 479 44 44 44 44 44 44 44 44 44 728 728 728 728 728 728 728 728 505 505 505 505 505 505 904 904 904 904 904 904 904 904 123 123 123 838 838 838 838 838 838 838 838 838 838 213 213 213 213 213 213 78 78 78 78 78 78 78 78 332 332 332 332 332 332 332 332 654 654 654 690 690 690 690 690 898 898 898 898 898 898 898 898 898 949 949 949 949 949 949 602 602 602 479 479 479 479 479 479 479 669 669 44 44 44 44 44 44 44 44 44 728 728 728 728 728 728 505 505 505 505 505 505 505 904 904 904 904 904 904 904 123 123 123 123 687 838 838 838 838 838 838 838 838 838 213 213 213 213 213 78 78 78 78 78 78 78 78 78 78 332 332 332 332 332 332 332 654 654 654 654 654 690 690 690 898 898 898 898 898 898 898 898 898 949 949 949 949 949 949 949 949 479 479 479 479 479 479 479 669 669 669 669 44 44 44 44 44 44 44 492 492 243 243 243 243 243 505 505 505 505 505 505 505 837 837 904 904 904 904 123 123 123 123 123 687 687 838 838 838 838 838 838 584 584 584 213 213 213 213 78 78 78 78 78 78 78 78 78 78 332 332 332 332 332 332 654 654 654 654 654 654 654 654 654 898 898 898 898 898 898 898 898 898 949 949 949 949 949 949 949 949 479 479 479 479 479 479 479 669 669 669 669 669 44 44 44 44 44 492 492 492 243 243 243 243 243 243 243 505 505 505 505 837 837 837 837 837 837 837 123 123 123 123 123 687 687 687 838 838 838 584 584 584 584 584 584 213 213 78 78 78 78 78 78 78 78 78 78 78 332 332 332 332 332 654 654 654 654 654 654 654 654 654 654 654 898 898 898 898 898 898 898 898 949 949 949 949 949 949 949 900 900 479 479 479 479 479 669 669 669 669 669 669 669 44 44 44 492 492 492 492 243 243 243 243 243 243 243 243 505 837 837 837 837 837 837 837 837 837 837 123 123 123 687 687 687 687 687 838 584 584 584 584 584 584 584 584 121 78 78 78 78 78 78 78 78 78 414 414 414 332 332 332 332 654 654 654 654 654 654 654 654 654 654 654 898 898 898 898 898 898 898 898 949 949 949 949 900 900 900 900 434 434 434 434 434 434 434 669 669 669 669 669 669 111 111 492 492 492 492 492 243 243 243 243 243 243 243 243 243 837 837 837 837 837 837 837 837 837 837 837 176 176 687 687 687 687 687 584 584 584 584 584 584 584 584 584 121 121 78 78 78 78 78 78 78 414 414 414 414 106 106 654 654 654 654 654 654 654 654 654 654 654 654 654 654 898 898 898 898 898 898 898 422 422 422 422 900 900 900 900 434 434 434 434 434 434 434 434 669 669 669 669 669 111 111 492 492 492 492 243 243 243 243 243 243 243 243 243 837 837 837 837 837 837 837 837 837 837 837 837 176 176 123 123 687 687 683 584 584 584 584 584 584 584 584 121 121 121 121 78 78 78 78 78 414 414 414 414 414 106 106 654 654 654 654 654 654 654 654 654 654 654 654 654 654 898 898 898 898 898 898 422 422 422 422 422 422 900 900 900 434 434 434 434 434 434 434 434 434 669 669 669 669 111 492 492 492 492 492 243 243 243 243 243 243 243 243 243 837 837 837 837 837 837 837 837 837 837 837 837 123 123 123 123 123 123 123 584 584 584 584 584 584 584 121 121 121 121 121 121 78 78 414 414 414 414 414 414 414 414 106 654 654 654 654 654 654 654 654 654 654 654 654 654 654 898 898 898 898 898 422 422 422 422 422 422 422 422 900 900 434 434 434 434 434 434 434 434 434 434 669 669 669 492 492 492 492 492 492 243 243 243 243 243 243 243 243 685 837 837 837 837 837 837 837 837 837 837 837 123 123 123 123 123 123 123 123 123 584 584 584 584 584 121 121 121 121 121 121 121 414 414 414 414 414 414 414 414 414 414 414 654 654 654 654 654 654 654 654 654 654 654 654 654 654 654 898 898 898 422 422 422 422 422 422 422 422 422 422 900 434 434 434 434 434 434 434 434 434 434 434 669 492 492 492 492 492 640 640 243 243 243 243 243 243 685 685 685 685 837 837 837 837 837 837 837 837 837 123 123 123 123 123 123 123 123 123 123 123 584 584 584 121 121 121 121 121 121 121 121 414 414 414 414 414 414 414 414 414 414 654 654 654 654 654 654 654 654 654 654 654 654 654 654 654 311 311 311 422 422 422 422 422 422 422 422 422 422 422 422 434 434 434 434 434 434 434 434 434 434 434 434 492 492 492 640 640 640 640 640 243 243 243 685 685 685 685 685 685 685 837 837 837 837 837 837 837 123 123 123 123 123 123 123 123 123 123 123 123 123 681 681 121 121 121 121 121 121 121 121 726 726 726 726 726 726 726 726 414 51 51 654 654 654 654 654 654 654 654 654 654 654 654 654 311 311 311 311 422 422 422 422 422 422 422 422 422 422 422 422 434 434 434 434 434 434 434 434 434 434 434 319 319 319 640 640 640 640 640 640 640 685 685 685 685 685 685 685 685 685 837 837 837 837 837 837 123 123 123 123 123 123 123 123 123 123 123 123 123 123 681 681 681 121 121 121 121 121 121 726 726 726 726 726 726 726 726 726 726 51 51 51 654 654 654 654 654 930 930 930 930 930 930 930 311 311 311 422 422 422 422 422 422 422 422 422 422 422 422 194 194 434 434 434 434 434 434 434 434 434 319 319 319 319 319 640 640 640 640 640 685 685 685 685 685 685 685 685 685 685 685 837 837 837 837 123 123 123 123 123 123 123 123 123 123 123 123 123 123 123 681 681 681 681 121 121 121 121 726 726 726 726 726 726 726 726 726 726 726 51 51 51 654 654 654 654 930 930 930 930 930 930 930 930 930 311 2 422 422 422 422 422 422 422 422 422 422 422 194 194 194 434 434 434 434 434 434 434 434 319 319 319 319 319 319 640 640 640 640 640 685 685 685 685 685 685 685 685 685 685 685 685 837 837 123 123 123 123 123 123 123 123 123 123 123 123 123 123 123 123 681 681 681 681 109 109 109 726 726 726 726 726 726 726 726 726 726 726 726 429 429 429 654 930 930 930 930 930 930 930 930 930 930 930 930 2 2 2 2 422 422 422 422 422 422 422 422 194 194 194 194 194 434 434 434 434 434 434 319 319 319 319 319 319 319 319 640 640 640 640 685 685 685 685 685 685 685 685 685 685 685 685 203 203 123 123 123 123 123 123 123 123 123 123 123 123 123 123 123 123 681 681 681 681 109 109 109 726 726 726 726 726 726 726 726 726 726 726 726 429 429 429 429 930 930 930 930 930 930 930 930 930 930 930 312 2 2 2 2 422 422 422 422 422 422 626 626 194 194 194 194 194 69 69 69 69 69 69 319 319 319 319 319 319 319 319 319 640 640 740 685 685 685 685 685 685 685 685 685 685 685 203 203 203 123 123 123 123 123 123 123 123 123 123 123 123 123 123 123 123 681 681 681 109 109 109 109 109 726 726 726 726 726 726 726 726 726 726 429 429 429 429 429 930 930 930 930 930 930 930 930 930 930 312 312 312 2 2 2 2 422 422 626 626 626 626 626 626 194 194 69 69 69 69 69 69 69 69 319 319 319 319 319 319 319 319 319 740 740 740 740 685 685 685 685 685 685 685 685 685 685 203 203 203 123 123 123 123 123 123 123 123 123 123 123 123 123 123 123 123 681 681 109 109 109 109 109 109 885 885 726 726 726 726 726 726 726 726 429 429 429 429 429 773 930 930 930 930 930 930 930 930 312 312 312 312 312 312 2 626 626 626 626 626 626 626 626 626 626 69 69 69 69 69 69 69 69 69 69 319 319 319 319 319 319 319 740 740 740 740 740 740 685 685 685 685 685 685 685 685 910 203 203 203 123 123 123 123 123 123 123 123 123 123 123 123 123 123 123 627 627 681 109 109 109 109 109 885 885 885 885 726 726 726 726 726 726 429 429 429 429 429 773 773 773 930 930 930 930 930 930 312 312 312 312 312 312 312 626 626 626 626 626 626 626 626 626 626 626 69 69 69 69 69 69 69 69 69 69 319 319 319 319 319 319 319 740 740 740 740 740 740 740 685 685 685 910 910 910 910 910 910 896 896 203 123 123 123 123 123 123 123 123 123 123 123 123 123 434 434 434 434 109 109 109 109 885 885 885 885 885 885 726 726 726 726 429 429 429 429 429 773 773 773 773 773 773 930 930 312 312 312 312 312 312 312 312 312 626 626 626 626 626 626 626 626 626 626 626 69 69 69 69 69 69 69 69 69 69 303 303 303 303 303 303 303 740 740 740 740 740 740 740 740 910 910 910 910 910 910 910 910 896 896 896 123 123 123 123 123 123 123 123 123 123 123 123 434 434 434 434 434 434 434 109 885 885 885 885 885 885 885 872 872 872 872 429 429 429 773 773 773 773 773 773 773 773 773 312 312 312 312 312 312 312 312 312 626 626 626 626 626 626 626 626 626 626 626 626 69 69 69 69 69 69 69 69 69 69 303 303 303 303 303 303 303 303 740 740 740 740 740 740 740 910 910 910 910 910 910 910 910 675 896 896 742 123 123 123 123 123 123 123 123 123 123 434 434 434 434 434 434 434 434 434 885 885 885 885 885 885 885 872 872 872 872 872 429 773 773 773 773 773 773 773 773 773 773 460 460 312 312 312 312 312 312 312 626 626 626 626 626 626 626 626 626 626 626 626 69 69 69 69 69 69 69 69 69 303 303 303 303 303 303 303 303 303 303 740 740 740 740 740 910 910 910 910 910 910 910 910 675 675 742 742 742 742 742 123 123 123 123 123 123 123 434 434 434 434 434 434 434 434 434 434 768 768 885 885 885 885 872 872 872 872 872 872 773 773 773 773 773 773 773 773 773 773 773 460 460 460 460 460 460 312 312 626 626 626 626 626 626 626 626 626 626 626 626 626 998 998 69 69 69 69 69 69 69 303 303 303 303 303 303 303 303 303 303 740 740 740 740 740 910 910 910 910 910 910 910 675 675 675 742 742 742 742 742 742 123 123 123 123 123 123 434 434 434 434 434 434 434 434 434 768 768 768 768 768 768 768 768 872 872 872 872 872 773 773 773 773 773 773 773 773 773 773 773 460 460 460 460 460 460 212 212 626 626 626 626 626 626 626 626 626 626 626 626 626 998 998 998 69 69 69 69 69 303 303 303 303 303 303 303 303 303 303 303 303 740 740 740 558 558 910 910 910 910 910 675 675 675 675 742 742 742 742 742 742 742 123 123 123 123 434 434 434 434 434 434 434 434 434 434 768 768 768 768 768 768 768 768 768 872 872 872 886 886 773 773 773 773 773 773 773 773 773 773 460 460 460 460 460 212 212 212 212 626 626 626 626 626 626 626 626 626 626 626 998 998 998 998 998 998 69 69 303 303 303 303 303 303 303 303 303 303 303 303 303 303 558 558 558 558 558 910 910 910 910 675 675 675 742 742 742 742 742 742 742 742 742 111 111 111 111 434 434 434 434 434 434 434 434 768 768 768 768 768 768 768 768 768 768 768 872 886 886 886 886 773 773 773 773 773 773 773 773 773 460 460 460 460 212 212 212 212 212 212 626 626 626 626 626 626 626 626 626 626 998 998 998 998 998 998 998 303 303 303 303 303 303 303 303 303 303 303 303 303 303 558 558 558 558 558 558 558 910 910 910 675 125 742 742 742 742 742 742 742 742 742 742 111 111 111 111 111 434 434 434 434 434 434 434 768 768 768 768 768 768 768 768 768 768 768 886 886 886 886 886 886 773 773 773 773 773 773 773 773 460 460 212 212 212 212 212 212 212 212 212 626 626 626 626 626 626 626 626 626 920 920 920 920 920 920 805 805 805 303 303 303 303 303 303 303 303 303 303 303 558 558 558 558 558 558 558 558 558 558 125 125 125 742 742 742 742 742 742 742 742 742 111 111 111 111 111 111 111 434 434 434 434 434 434 768 768 768 768 768 768 768 768 768 768 768 886 886 886 886 886 886 886 773 773 773 773 773 120 120 212 212 212 212 212 212 212 212 212 212 212 626 626 626 626 626 626 626 626 920 920 920 920 920 920 920 805 805 805 805 303 303 303 303 303 303 303 303 303 303 558 558 558 558 558 558 558 558 558 558 125 125 125 742 742 742 742 742 742 742 742 742 111 111 111 111 111 111 111 434 434 434 434 434 768 768 768 768 768 768 768 768 768 768 768 768 886 886 886 886 886 886 886 886 773 773 120 120 120 120 212 212 212 212 212 212 212 212 212 212 212 626 626 626 626 626 626 626 920 920 920 920 920 920 920 920 805 805 805 805 805 303 303 303 303 708 708 708 708 708 558 558 558 558 558 558 558 558 558 558 125 125 125 125 742 742 742 742 742 742 742 111 111 111 111 111 111 111 111 111 434 434 434 434 768 768 768 768 768 768 768 768 768 768 768 768 886 886 886 886 886 886 886 886 886 120 120 120 120 120 212 212 212 212 212 212 212 212 212 212 522 213 213 213 213 213 626 920 920 920 920 920 920 920 920 805 805 805 805 805 805 805 708 708 708 708 708 708 708 708 708 558 558 558 558 558 558 558 558 558 125 125 125 142 142 142 142 142 142 742 142 111 111 111 111 111 111 111 111 111 434 434 434 434 768 768 768 768 768 768 768 768 768 768 768 768 768 886 886 886 886 886 886 886 132 132 120 120 120 120 254 254 254 212 212 212 212 212 212 213 213 213 213 213 213 213 213 920 920 920 920 920 920 920 920 805 805 