<?xml version="1.0"?>
<VTKFile type="ImageData" version="0.1" byte_order="LittleEndian">
<ImageData WholeExtent="0 100 0 100 0 100" Origin="0 0 0" Spacing="1 1 1">
<Piece Extent="0 100 0 100 0 100">
<PointData>
</PointData>
<CellData Scalars="Spin">
<DataArray type="Int32" Name="Spin" format="ascii" RangeMin="0" RangeMax="10000">
363 363 363 363 363 909 909 909 909 909 909 909 858 858 858 858 858 858 272 272 102 102 102 102 102 102 102 102 102 102 102 270 270 590 590 590 590 590 590 590 590 590 590 3 3 3 3 3 657 657 503 503 503 503 503 503 503 503 120 120 120 120 120 120 41 41 41 41 41 41 579 579 579 579 383 383 383 383 383 383 383 383 383 337 337 647 184 184 184 184 184 184 735 735 735 72 72 72 72 72 363 363 363 363 363 363 909 909 909 909 909 909 858 858 858 858 858 272 272 272 102 102 102 102 102 102 102 102 102 102 102 102 270 590 590 590 590 590 590 590 590 74 74 74 3 3 3 657 657 657 377 503 503 503 503 503 503 167 167 120 120 120 120 41 41 41 41 41 41 41 41 579 579 320 320 383 383 383 383 383 383 383 364 364 364 184 184 184 184 184 184 184 184 735 72 72 72 72 72 72 363 363 363 363 363 363 363 909 909 909 909 909 858 858 858 858 858 272 272 272 102 102 102 102 102 102 102 102 102 102 102 102 788 788 788 788 590 590 590 74 74 74 74 74 74 74 17 657 657 377 377 377 377 503 503 503 167 167 167 167 167 120 41 41 41 41 41 41 41 41 41 579 320 320 320 320 383 383 383 383 364 364 364 364 364 364 184 184 184 184 184 184 184 184 72 72 72 72 72 72 363 363 363 363 363 363 363 909 909 909 909 909 904 904 904 904 904 272 272 272 102 102 102 102 102 102 102 102 102 102 102 788 788 788 788 788 788 74 74 74 74 74 74 74 74 74 17 17 17 17 17 377 377 377 503 167 167 167 167 167 167 167 41 41 41 41 41 41 41 41 41 320 320 320 320 320 320 364 364 364 364 364 364 364 364 364 184 184 184 184 184 184 184 184 184 72 72 72 72 72 363 363 363 363 363 363 363 704 704 704 704 704 904 904 904 904 904 813 272 272 102 102 102 102 102 102 102 102 102 102 788 788 788 788 788 788 788 74 74 74 74 74 74 74 74 74 17 17 17 17 17 17 377 377 167 167 167 167 167 167 167 167 167 41 41 41 41 41 41 385 385 320 320 320 320 320 320 364 364 364 364 364 364 364 364 364 364 184 184 184 184 184 184 184 184 72 72 72 72 72 363 363 363 363 363 363 704 704 704 704 704 704 704 904 904 904 904 813 813 813 102 102 102 102 102 102 102 102 102 788 788 788 788 788 788 788 788 74 74 74 74 74 74 74 74 74 17 17 17 17 17 17 17 17 167 167 167 167 167 167 167 167 167 167 41 41 41 385 385 385 385 320 320 320 320 320 320 364 364 364 364 364 364 364 364 364 364 364 184 184 184 184 184 184 965 965 965 965 965 965 965 363 363 363 363 704 704 704 704 704 704 704 704 704 904 904 813 813 813 813 773 102 102 102 102 102 102 102 788 788 788 788 788 788 788 788 788 74 74 74 74 74 74 74 74 74 17 17 17 17 17 17 17 17 167 167 167 167 167 167 167 167 167 167 385 385 385 385 385 385 385 385 320 320 320 320 364 364 364 364 364 364 364 364 364 364 364 364 440 440 440 440 440 440 965 965 965 965 965 965 965 965 363 363 704 704 704 704 704 704 704 704 704 704 4 4 4 813 813 813 773 773 102 102 102 102 102 788 788 788 788 788 788 788 788 788 788 74 74 74 74 74 74 74 74 74 17 17 17 17 17 17 17 17 167 167 167 167 167 167 167 167 167 167 385 385 385 385 385 385 385 385 756 756 756 756 364 364 364 364 364 364 364 364 364 364 364 364 440 440 440 440 440 440 440 965 965 965 965 965 965 965 837 837 704 704 704 704 704 704 704 704 704 704 4 4 4 4 4 773 773 773 773 102 102 102 102 788 788 788 788 788 788 788 788 788 788 74 74 74 74 74 74 74 74 534 534 17 17 17 17 17 17 17 167 167 167 167 167 167 167 167 167 385 385 385 385 385 385 385 385 385 756 756 756 756 530 530 364 364 364 364 364 364 364 364 364 364 440 440 440 440 440 440 440 965 965 965 965 965 965 837 837 837 837 704 704 704 704 704 704 704 704 704 4 4 4 4 4 773 773 773 773 773 102 102 788 788 788 788 788 788 788 788 788 788 788 788 74 74 74 74 74 74 534 534 534 534 17 17 17 17 17 17 167 167 167 167 167 167 167 167 167 385 385 385 385 385 385 385 385 385 756 756 756 756 530 530 530 364 364 364 364 364 364 364 364 364 440 440 440 440 440 440 440 965 965 965 965 965 837 837 837 837 837 837 704 704 704 704 704 704 704 704 704 4 4 4 215 215 215 215 215 215 583 583 583 788 788 788 788 788 788 788 788 788 788 788 74 74 74 74 74 534 534 534 534 534 534 17 17 17 17 17 167 167 167 167 167 167 167 167 179 179 385 385 385 385 385 385 385 385 395 395 395 395 530 530 530 530 364 364 364 364 364 364 364 364 440 440 440 440 440 440 440 965 965 965 965 965 837 837 837 837 837 837 837 704 704 704 704 704 704 704 704 4 4 4 215 215 215 215 215 215 583 583 583 583 788 788 788 788 788 788 788 788 788 788 788 74 74 74 682 534 534 534 534 534 534 534 17 17 17 620 620 620 620 620 620 620 620 179 179 179 179 385 385 385 385 385 385 395 395 395 395 395 395 530 530 530 530 364 364 364 364 364 364 364 440 440 440 440 440 440 440 965 965 965 965 837 837 837 837 837 837 837 837 837 704 704 704 704 704 704 307 307 307 215 215 215 215 215 215 215 583 583 583 583 583 788 788 788 788 788 788 788 788 788 788 682 682 682 682 682 534 534 534 534 534 534 534 10 10 620 620 620 620 620 620 620 179 179 179 179 179 179 385 385 385 385 395 395 395 395 395 395 395 395 530 530 831 831 831 364 364 364 946 946 946 440 440 440 440 440 435 435 400 400 837 837 837 837 837 837 837 837 837 837 837 704 704 704 704 307 307 307 307 215 215 215 215 215 215 215 583 583 583 583 945 945 945 945 945 945 945 788 788 788 682 682 682 682 682 682 682 682 534 534 534 534 10 10 10 10 620 620 620 620 620 620 179 179 179 179 179 179 179 28 28 395 395 395 395 395 395 395 395 395 395 395 831 831 831 831 831 946 946 946 946 946 621 621 621 435 435 435 400 400 837 837 837 837 837 837 837 837 837 837 837 837 704 704 307 307 307 307 307 215 215 215 215 215 215 215 583 583 583 945 945 945 945 945 945 945 945 945 945 945 682 682 682 682 682 682 682 682 682 682 534 10 10 10 10 10 10 620 620 620 620 620 179 179 179 179 179 179 179 179 395 395 395 395 395 395 395 395 395 395 395 395 831 831 831 831 831 946 946 946 946 946 621 621 621 621 435 435 400 400 837 837 837 837 837 837 837 837 837 837 837 837 837 61 307 307 307 307 307 215 215 215 215 215 215 215 583 583 945 945 945 945 945 945 945 945 945 945 945 945 682 682 682 682 682 682 682 682 682 682 682 10 10 10 10 10 10 10 620 620 620 620 179 179 179 179 179 179 179 395 395 395 395 395 395 395 395 395 395 395 395 395 831 831 831 831 831 831 946 946 946 621 621 621 621 621 621 755 755 755 837 837 837 837 837 837 837 837 837 837 837 837 61 61 61 61 307 307 115 115 115 115 115 115 215 945 945 945 945 945 945 945 945 945 945 945 945 945 945 945 682 682 682 682 682 682 682 682 682 682 682 10 10 10 10 10 10 10 620 620 620 620 179 179 179 179 179 179 179 395 395 395 395 395 395 395 395 395 395 395 395 395 395 831 831 831 831 831 946 946 946 621 621 621 621 621 755 755 755 755 755 837 837 837 837 837 837 837 837 837 837 340 61 61 61 61 115 115 115 115 115 115 115 115 115 420 945 945 945 945 945 945 945 945 945 945 945 945 945 945 682 682 682 682 682 682 682 682 682 682 682 10 10 10 10 10 10 10 358 993 993 993 993 582 582 582 582 582 582 395 395 395 395 395 395 395 395 395 395 395 395 395 395 395 831 831 831 792 792 792 792 731 731 621 621 621 755 755 755 755 755 755 755 837 837 837 837 837 837 837 340 340 61 61 61 115 115 115 115 115 115 115 115 115 420 420 945 945 945 945 945 945 945 945 945 945 945 945 945 945 682 682 682 682 682 682 682 682 682 682 682 10 10 10 10 10 10 358 358 993 993 993 993 993 582 582 582 582 582 395 395 395 395 395 395 395 395 395 395 395 395 395 395 600 600 600 600 792 792 792 792 731 731 935 935 935 755 755 755 755 755 755 340 340 340 340 340 340 340 340 340 340 340 115 115 115 115 115 115 115 115 115 115 115 420 420 420 945 945 945 945 945 945 945 945 945 945 945 945 945 682 682 682 682 682 682 682 682 682 682 682 10 10 10 10 10 358 358 358 993 993 993 993 993 582 582 582 582 582 582 395 395 395 395 395 395 395 395 395 395 395 395 600 600 600 600 600 600 792 792 792 731 935 935 935 935 935 755 755 755 755 755 340 340 340 340 340 340 340 340 340 340 340 115 115 115 115 115 115 115 115 115 115 115 115 115 420 945 945 945 945 945 945 945 945 945 945 945 945 945 682 682 682 682 682 682 682 682 682 682 682 10 10 10 10 358 358 358 358 993 993 993 993 993 993 582 582 582 582 582 395 395 395 395 395 395 395 395 395 395 395 600 600 600 600 600 600 600 600 792 792 935 935 935 935 935 935 935 935 755 755 340 340 340 340 340 340 340 340 340 340 340 340 115 115 115 115 115 115 115 115 115 115 115 115 115 147 147 945 945 945 945 945 945 945 945 441 441 441 441 682 682 682 682 682 682 682 682 682 682 682 10 10 10 358 358 358 358 358 993 993 993 993 993 993 582 582 582 582 582 395 395 395 395 395 395 395 395 395 395 600 600 600 600 600 600 600 600 600 600 691 935 935 935 935 935 935 935 935 935 935 340 340 340 340 340 340 340 340 340 340 340 340 115 115 115 115 115 115 115 115 115 115 115 115 115 147 147 147 945 945 945 945 945 441 441 441 441 441 441 441 682 682 682 682 682 682 682 682 682 682 358 358 358 358 358 358 358 358 993 993 993 993 993 993 993 582 582 582 32 32 395 395 395 395 395 395 395 395 395 600 600 600 600 600 600 600 600 600 494 691 691 935 935 935 935 935 935 935 935 935 340 340 340 340 340 340 340 340 340 340 340 156 156 156 115 115 115 115 115 115 115 115 115 115 115 147 147 147 147 945 945 441 441 441 441 441 441 441 441 441 787 787 787 682 682 682 682 682 364 364 364 358 358 358 358 358 358 358 993 993 993 993 993 993 993 582 32 32 32 32 32 395 395 395 395 395 195 195 195 195 600 600 600 600 600 600 494 494 494 691 691 935 935 935 935 935 935 935 935 935 935 340 340 340 340 340 340 340 340 340 156 156 156 156 156 115 115 115 115 115 115 115 239 239 106 106 147 147 147 147 441 441 441 441 441 441 441 441 441 441 787 787 787 787 787 787 682 364 364 364 364 358 358 358 358 358 358 358 731 731 731 993 993 993 993 32 32 32 32 32 32 32 32 395 195 195 195 195 195 195 195 195 600 600 600 494 494 494 494 494 691 935 935 935 935 935 935 935 935 935 935 935 340 340 340 340 340 340 340 156 156 156 156 156 156 115 115 115 115 239 239 239 239 106 106 106 106 106 147 147 652 441 441 441 441 441 441 441 441 441 787 787 787 787 787 787 364 364 364 364 283 283 283 283 358 358 358 731 731 731 731 731 993 993 649 32 32 32 32 32 32 32 32 195 195 195 195 195 195 195 195 195 195 600 494 494 494 494 494 494 691 935 935 935 935 935 935 935 935 935 935 935 599 599 340 340 340 340 156 156 156 156 156 156 156 156 115 115 115 239 239 239 106 106 106 106 106 106 106 791 791 791 441 441 441 441 441 441 441 441 787 787 787 787 787 787 364 364 364 283 283 283 283 283 283 283 731 731 731 731 731 731 649 649 649 649 32 32 32 32 32 32 32 195 195 195 195 195 195 195 195 195 195 195 494 494 494 494 494 494 494 935 935 935 935 935 935 935 935 935 935 599 599 599 599 599 340 156 156 156 156 156 156 156 156 156 527 115 115 115 106 106 106 106 106 106 106 106 106 791 791 791 791 441 441 441 441 441 441 915 915 915 915 915 915 915 915 283 283 283 283 283 283 283 283 283 283 731 731 731 731 649 649 649 649 649 649 32 32 32 32 32 32 195 195 195 195 195 195 195 195 195 195 195 195 494 494 494 494 494 494 690 935 935 935 935 935 935 935 935 935 599 599 599 599 599 599 156 156 156 156 156 156 156 156 527 527 527 527 106 106 106 106 106 106 106 106 106 106 791 791 791 791 441 441 441 441 441 915 915 915 915 915 915 915 915 915 283 283 283 283 283 283 283 283 283 283 731 442 731 649 649 649 649 649 649 649 649 32 32 32 122 122 195 195 195 195 195 195 195 195 195 195 195 195 545 494 494 494 494 690 690 690 935 935 935 935 935 935 935 599 599 599 599 599 599 599 599 156 156 156 156 156 527 527 527 527 527 527 106 106 106 106 106 106 106 106 106 106 791 791 791 791 791 441 441 441 915 915 915 915 915 915 915 915 915 915 283 283 283 283 283 283 283 283 283 283 283 333 333 649 649 649 649 649 649 649 649 649 122 122 122 122 122 195 195 195 195 195 195 195 195 195 195 195 195 545 494 494 690 690 690 690 690 690 935 935 935 935 599 599 599 599 599 599 599 599 599 156 156 156 156 527 527 527 527 527 527 527 106 106 106 106 106 106 106 106 106 106 791 791 791 791 791 279 279 279 915 915 915 915 915 915 915 915 915 915 567 283 283 283 283 283 283 283 283 283 283 333 333 333 649 649 649 649 649 649 649 122 122 122 122 122 122 122 195 195 195 195 195 195 195 195 195 195 195 545 494 690 690 690 690 690 690 690 690 543 543 599 599 599 599 599 599 599 599 599 599 323 323 323 527 527 527 527 527 527 527 527 106 106 106 106 106 106 106 106 106 106 106 791 791 791 279 279 279 279 279 915 915 915 915 915 915 915 915 567 567 567 283 283 283 283 283 283 283 283 333 333 333 333 333 333 649 649 649 649 649 122 122 122 122 122 122 122 122 195 195 195 195 195 195 195 195 195 364 364 364 364 690 690 690 690 690 690 690 543 543 543 599 599 599 599 599 599 599 599 323 323 323 323 323 527 527 527 527 527 527 527 106 106 106 106 106 106 106 106 106 106 106 279 279 279 279 279 279 279 279 279 915 915 915 915 915 915 567 567 567 567 567 283 283 283 283 283 283 283 333 333 333 333 333 333 333 649 649 649 649 122 122 122 122 122 122 122 122 122 195 195 195 195 195 195 195 364 364 364 364 364 364 690 690 690 690 690 690 543 543 543 599 599 599 599 599 599 599 323 323 323 323 323 323 323 527 527 527 527 527 527 106 106 106 106 106 106 106 106 106 106 106 279 279 279 279 279 279 279 279 279 279 915 915 915 915 567 567 567 567 567 567 567 567 567 567 233 233 233 333 333 333 333 333 333 333 333 649 649 649 122 122 122 122 122 122 122 122 122 122 301 301 301 195 195 364 364 364 364 364 364 364 364 690 690 690 690 690 543 543 543 599 599 599 599 599 599 323 323 323 323 323 323 323 323 527 527 527 527 527 195 195 195 106 106 106 106 106 106 106 106 279 279 279 279 279 279 279 279 279 279 279 279 915 915 788 788 567 567 567 567 567 567 567 567 233 233 233 233 233 333 333 333 333 333 333 333 333 649 122 122 122 122 122 122 122 122 122 122 301 301 301 301 301 301 364 364 364 364 364 364 364 364 364 690 690 690 690 543 543 543 599 599 599 599 599 323 323 323 323 323 323 323 323 323 323 527 527 527 195 195 195 195 195 106 106 106 106 106 106 279 279 279 279 279 279 279 279 279 279 279 279 279 788 788 788 788 788 788 788 788 567 567 567 233 233 233 233 233 233 233 333 333 333 333 333 333 333 9 9 122 122 122 122 122 122 122 122 122 301 301 301 301 301 301 364 364 364 364 364 364 364 364 364 364 364 690 416 416 416 416 416 599 599 599 323 323 323 323 323 323 323 323 323 323 578 578 578 195 195 195 195 195 195 195 106 106 106 106 279 279 279 279 279 279 279 279 279 279 279 279 279 279 788 788 788 788 788 788 788 788 788 567 233 233 233 233 233 233 233 233 233 333 333 333 333 333 333 9 9 9 122 122 122 122 122 122 122 122 301 301 301 301 301 301 364 364 364 364 364 364 364 364 364 364 364 364 416 416 416 416 416 416 416 323 323 323 323 323 323 323 323 323 323 578 578 578 578 578 195 195 195 195 195 195 195 106 106 106 279 279 279 279 279 279 279 279 279 279 279 279 279 788 788 788 788 788 788 788 788 788 788 788 233 233 233 233 233 233 233 233 233 333 333 333 333 333 333 9 9 9 9 122 122 369 369 369 369 369 369 301 301 301 301 364 364 364 364 364 364 364 364 364 364 364 364 364 416 416 416 416 416 416 416 323 323 323 323 323 323 323 323 323 578 578 578 578 578 578 195 195 195 195 195 195 195 195 106 106 279 279 279 279 279 279 279 279 279 279 279 279 279 788 788 788 788 788 788 788 788 788 788 788 233 233 233 233 233 233 233 233 233 233 333 333 333 333 333 9 9 9 679 679 369 369 369 369 369 369 369 369 301 482 482 364 364 364 364 364 364 364 364 364 364 364 364 364 416 416 416 416 416 416 416 416 323 323 323 323 323 323 323 578 578 578 578 578 578 997 997 195 195 195 195 195 195 195 307 307 287 287 287 279 279 279 279 279 279 279 279 279 279 788 788 788 788 788 788 788 788 788 788 788 233 233 233 233 233 233 233 233 233 233 233 333 333 333 333 9 9 679 679 679 369 369 369 369 369 369 369 369 482 482 482 482 364 364 364 364 364 364 364 364 364 364 364 573 573 416 416 416 416 416 416 416 160 160 160 160 160 160 160 578 578 578 578 578 997 997 997 997 997 195 195 195 195 195 287 287 287 287 287 287 287 279 279 279 279 279 279 279 279 788 788 788 788 788 788 788 788 788 788 788 233 233 233 233 233 233 233 233 233 233 233 233 333 333 333 679 679 679 679 679 679 369 369 369 369 369 369 369 482 482 482 482 364 364 364 364 364 364 364 364 364 364 573 573 573 573 416 416 416 416 416 160 160 160 160 160 160 160 160 578 578 578 578 997 997 997 997 997 997 997 195 195 195 287 287 287 287 287 287 287 287 287 287 279 279 279 279 279 106 106 788 788 788 788 788 788 788 788 788 788 233 233 233 233 233 233 233 233 233 233 233 233 233 776 776 679 679 679 679 679 679 679 369 369 369 369 369 369 482 482 482 482 482 364 364 364 364 364 364 364 364 573 573 573 573 573 573 416 416 416 416 160 160 160 160 160 160 160 160 160 578 578 578 997 997 997 997 997 997 997 997 904 904 287 287 287 287 287 287 287 287 287 287 287 287 279 279 106 106 106 106 788 788 788 788 788 788 788 788 788 233 233 233 233 233 233 233 233 233 233 233 233 486 486 776 679 679 679 679 679 679 679 679 369 369 369 369 369 482 482 482 482 482 364 364 364 364 364 364 364 573 573 573 573 573 573 573 573 416 416 160 160 160 160 160 160 160 160 160 160 578 578 997 997 997 997 997 997 997 997 904 904 904 904 287 287 287 287 287 287 287 287 287 287 287 287 106 106 106 106 106 106 106 788 788 788 788 788 788 788 233 233 233 233 233 233 233 233 233 233 233 486 486 486 486 679 679 679 679 679 679 679 679 679 369 369 369 327 327 482 482 482 482 364 364 364 364 364 364 573 573 573 573 573 573 573 573 573 573 416 160 160 160 160 160 160 160 160 160 160 285 578 997 997 997 997 997 997 997 997 904 904 904 904 287 287 287 287 287 287 287 287 287 287 287 287 106 106 106 106 106 106 106 106 788 788 788 559 559 559 357 233 233 233 233 233 233 697 233 233 160 160 486 486 486 679 679 679 679 679 679 679 679 679 679 679 327 327 327 327 482 482 482 482 924 924 924 924 573 573 573 573 573 573 573 573 573 573 573 99 99 160 160 160 160 160 160 160 160 285 285 285 997 997 997 997 997 997 997 904 904 904 904 904 287 287 287 287 287 287 287 287 287 287 287 106 106 106 106 106 106 106 106 106 106 559 559 559 559 357 357 357 233 233 233 697 697 697 697 697 160 160 486 486 709 679 679 679 679 679 679 679 679 679 679 679 327 327 327 327 327 327 482 924 924 924 924 924 924 573 573 573 573 573 573 573 573 573 573 99 681 681 160 160 160 160 160 160 160 285 285 285 997 997 997 997 997 997 904 904 904 904 904 904 904 287 287 287 287 287 287 287 287 287 287 106 106 106 106 106 106 106 106 106 106 106 559 559 357 357 357 357 357 878 878 697 697 697 697 697 160 160 160 709 709 709 679 679 679 679 679 679 679 679 679 679 327 327 327 327 327 327 327 924 924 924 924 924 924 924 573 573 573 573 573 573 573 573 681 681 681 681 681 160 160 160 160 160 285 285 285 285 285 997 997 997 997 997 904 904 904 904 904 904 904 287 287 287 287 287 287 287 287 287 287 106 106 106 106 106 106 106 106 106 106 106 357 357 357 357 357 357 357 878 878 878 878 697 697 82 82 82 709 709 709 709 709 679 679 679 679 679 679 679 679 679 327 327 327 327 327 327 327 924 924 924 924 924 924 924 924 573 573 573 573 573 681 681 681 681 681 681 681 681 160 160 643 643 643 285 285 285 285 923 997 997 997 764 764 904 904 904 904 904 904 287 287 287 287 287 287 287 287 287 287 106 106 106 106 106 106 106 106 106 106 106 357 357 357 357 357 357 357 878 878 878 878 878 82 82 82 82 82 709 709 709 709 78 679 679 679 679 679 679 679 679 248 248 248 248 248 248 924 924 924 924 924 924 924 924 924 924 573 573 573 681 681 681 681 681 681 681 681 681 643 643 643 643 643 643 285 285 923 923 923 923 764 764 764 764 904 904 904 904 536 536 287 287 287 287 287 287 287 287 287 907 106 106 106 106 106 106 106 106 106 106 357 357 357 357 357 357 357 357 878 878 878 82 82 82 82 82 82 709 709 709 78 78 78 147 147 147 147 147 147 248 248 248 248 248 248 248 924 924 924 924 924 924 924 924 924 924 681 681 681 681 681 681 681 681 681 681 681 681 643 643 643 643 643 643 643 923 923 923 923 923 764 764 764 764 764 904 904 536 536 536 536 536 287 287 287 287 518 287 907 907 907 907 106 106 106 106 106 106 106 357 357 357 357 357 357 357 357 357 878 878 82 82 82 82 82 82 82 82 709 78 78 78 147 147 147 147 147 147 147 147 248 248 248 248 248 248 924 924 924 924 924 924 924 924 924 924 681 681 681 681 681 681 681 681 681 681 681 681 643 643 643 643 643 643 643 923 923 923 923 923 923 764 764 764 764 536 536 536 536 536 536 536 536 287 518 518 518 518 907 907 907 907 907 907 907 106 106 106 106 735 357 357 357 357 357 357 357 357 102 102 82 82 82 82 82 82 82 82 302 78 78 147 147 147 147 147 147 147 147 147 248 248 248 248 248 248 924 924 924 924 924 924 924 924 924 924 681 681 681 681 681 681 681 681 681 681 681 681 643 643 643 643 643 643 643 710 710 710 710 710 710 764 764 764 764 536 536 536 536 536 536 536 536 536 518 518 518 518 907 907 907 907 907 907 907 907 907 907 735 735 735 735 357 357 357 357 357 102 102 102 102 82 82 82 82 82 82 302 302 302 302 147 147 147 147 147 147 147 147 147 147 248 248 248 248 248 924 924 924 924 924 924 924 924 924 924 681 681 681 681 681 681 681 681 681 681 681 643 643 643 643 643 643 643 710 710 710 710 710 710 710 710 710 710 536 536 536 536 536 536 536 536 536 536 518 518 518 907 907 907 907 907 907 907 907 907 907 907 735 735 735 735 735 735 735 735 102 102 102 102 102 102 82 82 82 82 302 302 302 302 302 147 147 147 147 147 147 147 147 147 147 147 248 248 248 248 924 924 924 924 924 924 924 924 924 681 681 681 681 681 681 681 681 681 681 681 681 643 643 643 643 643 643 643 710 710 710 710 710 710 710 710 710 710 536 536 536 536 536 536 536 536 536 536 518 518 518 907 907 907 907 907 907 907 907 907 907 907 735 735 735 735 735 735 735 735 102 102 102 102 102 102 102 82 82 302 302 302 302 302 302 302 147 147 147 147 147 147 147 147 147 147 804 804 804 804 804 924 924 924 924 924 924 924 681 681 681 681 681 681 681 681 681 681 681 681 681 643 643 643 643 643 643 643 710 710 710 710 710 710 710 710 710 710 536 536 536 536 536 536 536 536 536 536 677 677 677 907 907 907 907 907 907 907 907 907 907 907 735 735 735 735 735 735 735 735 735 102 102 102 102 102 102 937 302 302 302 302 302 302 302 302 302 147 147 147 147 147 147 147 147 804 804 804 804 804 804 804 860 860 860 860 860 924 687 681 681 681 681 681 681 681 681 681 681 681 681 273 273 273 273 273 273 273 710 710 710 710 710 710 710 710 710 710 536 536 536 536 536 536 536 536 536 677 677 677 677 907 907 907 907 907 907 907 907 907 907 907 735 735 735 735 735 735 735 735 735 102 102 102 102 102 102 302 302 302 302 302 302 302 302 302 302 415 147 147 147 147 147 147 804 804 804 804 804 804 804 804 860 860 860 860 860 860 687 687 681 681 681 681 681 681 681 681 681 681 273 273 273 273 273 273 273 273 273 710 710 710 710 710 710 710 710 710 551 551 536 536 536 536 536 536 776 677 677 677 677 677 907 907 907 907 907 907 907 907 907 907 735 735 735 735 735 735 735 735 735 735 102 102 102 102 570 302 302 302 302 302 302 302 302 302 415 415 415 415 415 147 147 804 804 804 804 804 804 804 804 804 860 860 860 860 860 163 163 163 163 681 681 681 681 681 681 681 681 273 273 273 273 273 273 273 273 273 273 273 710 710 710 710 710 710 710 710 551 551 551 536 536 536 776 776 776 677 677 677 677 677 907 907 907 907 907 907 907 907 907 907 735 735 735 735 735 735 735 735 735 735 438 438 438 570 570 570 302 302 302 302 302 302 302 415 415 415 415 415 415 415 804 804 804 804 804 804 804 804 804 804 804 860 860 860 163 163 163 163 163 163 163 681 681 681 681 681 636 716 273 273 273 273 273 273 273 273 273 273 273 710 710 710 710 710 710 551 551 551 551 551 536 776 776 776 776 677 677 677 677 677 677 907 907 907 907 907 907 907 907 735 735 735 735 735 735 735 735 735 735 735 438 438 570 570 570 570 570 302 302 302 302 302 178 415 415 415 415 415 415 415 415 804 804 804 804 804 804 804 804 804 581 99 99 99 163 163 163 163 163 163 163 163 765 636 636 636 716 716 273 273 273 273 273 273 273 273 273 273 273 273 710 710 710 710 754 754 551 551 551 551 776 776 776 776 776 837 837 837 837 837 677 275 275 275 275 275 275 907 275 735 735 735 735 735 735 735 735 735 735 252 252 570 570 570 570 570 570 570 302 302 302 178 178 415 415 415 415 415 415 415 415 804 804 804 804 804 804 804 804 581 581 581 99 99 99 163 163 163 163 163 163 765 765 765 636 636 716 716 716 273 273 273 273 273 273 273 273 273 273 273 529 529 529 754 754 754 754 754 551 551 476 776 776 837 837 837 837 837 837 837 275 275 275 275 275 275 275 275 275 275 735 735 735 735 735 735 735 735 252 252 252 570 570 570 570 570 570 570 570 302 178 178 178 415 415 415 415 415 415 415 415 415 804 804 804 804 804 804 581 581 581 581 581 99 99 163 163 163 163 163 765 765 765 765 765 716 716 716 716 273 273 273 273 273 273 273 273 273 273 529 529 529 529 529 754 754 754 754 130 130 130 837 837 837 837 837 837 837 837 837 952 275 275 275 275 275 275 275 275 275 593 593 593 593 593 735 735 252 252 252 252 570 570 570 570 570 570 570 570 570 178 178 178 415 415 415 415 415 415 415 415 415 804 804 804 804 804 581 581 581 581 581 581 581 581 163 163 163 163 765 765 765 765 765 765 716 716 716 716 273 273 273 273 273 273 273 273 273 529 529 529 529 529 529 754 130 130 130 130 130 130 837 837 837 837 837 837 837 837 952 952 952 275 275 275 275 275 275 275 275 593 593 593 593 593 593 593 252 252 252 252 570 570 570 570 570 570 570 570 570 570 69 69 69 415 415 415 415 415 415 415 415 415 731 731 731 731 581 581 581 581 581 581 581 581 765 765 765 765 765 765 765 765 765 765 716 568 568 44 44 44 44 44 44 44 44 44 44 529 529 529 529 529 529 130 130 130 130 130 130 130 837 837 837 837 837 837 837 952 952 952 952 952 275 275 275 275 275 275 593 593 593 593 593 593 593 593 252 252 252 252 570 570 570 570 570 570 570 570 570 570 69 69 69 69 415 415 415 415 415 415 415 731 731 731 731 731 731 581 581 581 581 581 581 581 765 765 765 765 765 765 765 765 765 765 568 568 568 44 44 44 44 44 44 44 44 44 44 44 529 529 529 529 130 130 130 130 130 130 130 130 837 837 837 837 837 837 952 952 952 952 952 952 275 275 275 275 275 275 593 593 593 593 593 593 593 593 75 252 252 252 570 570 570 570 570 570 570 570 570 570 69 69 69 69 69 415 415 415 415 415 731 731 731 731 731 731 731 731 581 581 581 581 581 581 765 765 765 765 765 765 765 765 765 765 568 568 568 44 44 44 44 44 44 44 44 44 44 44 44 529 957 957 130 130 130 130 130 579 579 579 579 837 837 837 837 952 952 952 952 952 952 952 952 275 275 275 275 275 593 593 593 593 593 593 593 593 75 844 844 844 844 570 570 570 570 570 570 570 570 132 132 132 69 69 939 939 939 939 939 939 939 731 731 731 731 731 731 731 731 581 581 581 581 581 765 765 765 765 765 765 765 765 765 765 568 568 44 44 44 44 44 44 44 44 44 44 44 44 44 957 957 957 957 579 579 579 579 579 579 579 579 579 837 837 837 952 952 952 952 952 952 952 952 275 275 275 275 275 593 593 593 593 593 593 593 593 844 844 844 844 844 844 844 570 570 570 570 570 132 132 132 132 132 132 939 939 939 939 939 939 939 731 731 731 731 731 731 731 731 731 581 581 295 295 295 765 765 765 765 765 765 765 765 765 568 568 44 44 44 44 44 44 44 44 44 44 44 44 44 957 957 957 957 579 579 579 579 579 579 579 579 579 42 42 42 952 952 952 952 952 952 952 952 952 275 275 275 275 593 593 593 593 593 593 593 844 844 844 844 844 844 844 844 844 844 570 570 132 132 132 132 132 132 132 939 939 939 939 939 939 939 939 731 731 731 731 731 731 731 731 731 295 295 295 295 295 295 765 765 765 765 765 765 765 568 638 44 44 44 44 44 44 44 44 44 44 44 44 303 957 957 957 957 579 579 579 579 579 579 579 579 579 42 42 42 42 952 952 952 952 952 952 952 952 275 275 275 275 593 593 593 593 593 593 844 844 844 844 844 844 844 844 844 844 844 844 844 132 132 132 132 132 132 132 939 939 939 939 939 939 939 939 939 954 954 731 731 731 731 731 731 295 295 295 295 295 295 295 295 765 765 765 765 638 638 638 638 44 44 44 44 44 44 44 44 44 303 303 303 303 957 957 354 579 579 579 579 579 579 579 579 579 42 42 42 42 42 952 952 952 952 952 952 952 275 275 275 734 734 734 593 593 593 844 844 844 844 844 844 844 844 844 844 844 844 844 844 132 132 132 132 132 132 132 939 939 939 939 939 939 939 939 939 954 954 954 731 731 731 731 295 295 295 295 295 295 295 295 295 295 295 295 638 638 638 638 638 638 44 44 44 44 44 44 44 303 303 303 303 303 303 354 354 354 579 579 579 579 579 579 579 579 42 42 42 42 482 482 482 952 952 952 952 140 140 140 140 734 734 734 734 734 734 844 844 844 844 844 844 844 844 844 844 844 844 844 844 132 132 132 132 132 132 48 48 939 939 939 939 939 939 939 939 954 954 954 954 954 954 954 295 295 295 295 295 295 295 295 295 295 295 295 638 638 638 719 719 719 719 719 719 44 44 44 303 303 303 303 303 303 303 354 354 354 354 579 579 579 579 579 579 579 42 42 42 482 482 482 482 482 482 952 140 140 140 140 140 734 734 734 734 734 844 844 844 844 844 844 844 844 844 844 844 844 844 844 844 132 132 132 132 132 48 48 48 48 939 939 939 939 939 939 939 939 954 954 954 954 954 954 295 295 295 295 295 295 295 295 295 295 295 295 638 638 638 719 719 719 719 719 719 719 719 303 303 303 303 303 303 303 303 354 354 354 354 354 579 579 579 579 579 579 482 482 482 482 482 482 482 482 482 140 140 140 140 140 140 140 734 734 734 734 844 844 844 844 844 844 844 844 844 844 844 844 844 844 844 132 132 132 48 48 48 48 48 48 48 939 939 939 939 939 939 939 954 954 954 954 954 954 295 295 295 295 295 295 295 295 295 295 295 719 719 719 719 719 719 719 719 719 719 719 719 719 303 303 303 303 303 303 303 354 354 354 354 354 139 139 139 139 139 482 482 482 482 482 482 482 482 482 482 140 140 140 140 140 140 140 140 734 734 734 844 844 844 844 844 844 844 844 844 844 844 844 844 844 844 48 48 48 48 48 48 48 48 48 48 48 48 939 939 939 939 939 881 881 881 881 881 881 881 295 295 295 295 295 295 295 295 295 719 719 719 719 719 719 719 719 719 719 719 719 719 719 719 303 303 303 303 303 354 354 354 354 354 354 139 139 139 139 139 139 482 482 482 482 482 482 482 482 482 140 140 140 140 140 140 140 140 140 834 834 844 844 844 844 844 844 844 844 844 844 844 844 844 984 984 48 48 48 48 48 48 48