<?xml version="1.0"?>
<VTKFile type="ImageData" version="0.1" byte_order="LittleEndian">
<ImageData WholeExtent="0 100 0 100 0 100" Origin="0 0 0" Spacing="1 1 1">
<Piece Extent="0 100 0 100 0 100">
<PointData>
</PointData>
<CellData Scalars="Spin">
<DataArray type="Int32" Name="Spin" format="ascii" RangeMin="0" RangeMax="10000">
199 199 199 199 199 199 199 797 797 797 742 742 590 590 590 590 590 590 590 590 590 590 590 590 590 284 284 284 284 284 284 284 284 284 284 284 879 879 879 879 879 879 879 879 879 850 850 850 850 850 771 31 31 31 366 366 366 366 366 366 366 366 366 366 366 366 366 366 138 650 650 650 650 650 650 650 775 775 775 775 577 577 577 577 577 577 720 720 844 300 300 300 195 195 195 195 195 195 195 199 199 199 199 199 199 199 199 797 797 742 742 742 742 742 590 590 590 590 590 590 590 590 590 170 170 284 284 284 284 284 284 284 284 284 284 284 879 879 879 879 879 879 879 879 879 649 850 850 771 771 771 771 31 366 366 366 366 366 366 366 366 366 366 366 366 366 366 366 650 650 650 650 650 650 650 650 775 775 775 775 775 577 577 577 720 720 720 720 297 297 297 297 195 195 195 195 195 195 195 199 199 199 199 199 199 199 199 797 742 742 742 742 742 742 742 590 590 590 590 590 590 590 170 170 122 122 284 284 284 284 284 284 284 284 284 879 879 879 879 879 879 879 879 879 649 649 649 771 771 771 771 771 771 366 366 366 366 366 366 366 366 366 366 366 366 366 366 366 650 650 650 650 650 650 650 650 650 775 775 775 775 603 603 603 603 720 720 297 297 297 297 297 195 195 195 195 195 195 195 199 199 199 199 199 199 199 199 742 742 742 742 742 742 742 742 742 590 590 590 590 590 170 170 170 122 122 122 284 284 284 284 284 284 284 178 178 879 879 879 879 879 879 879 649 649 649 649 771 771 771 771 771 771 419 366 366 366 366 366 366 366 366 366 366 366 366 366 366 650 650 650 650 650 650 650 650 650 650 775 775 603 603 603 603 603 297 297 297 297 297 297 297 297 195 195 195 195 195 195 199 199 199 199 199 199 199 199 742 742 742 742 742 742 742 742 742 742 590 590 590 170 170 170 170 122 122 122 122 284 284 284 284 284 178 178 178 178 879 879 879 879 879 649 649 649 649 649 771 771 771 771 771 771 419 366 366 366 366 366 366 366 366 366 366 366 366 366 366 650 650 650 650 650 650 650 650 650 650 650 603 603 603 603 603 603 297 297 297 297 297 297 297 297 297 195 195 195 195 195 199 199 199 199 199 199 199 199 742 742 742 742 742 742 742 742 742 742 742 590 170 170 170 170 122 122 122 122 122 284 284 284 284 178 178 178 178 178 178 879 879 879 649 649 649 649 649 649 649 771 771 771 771 771 419 366 366 366 366 366 366 366 366 366 366 366 366 366 366 650 650 650 650 650 650 650 650 650 650 650 603 603 603 603 603 297 297 297 297 297 297 297 297 297 297 297 195 195 195 195 199 199 199 199 199 199 199 199 742 742 742 742 742 742 742 742 742 742 742 247 247 170 170 256 256 256 256 256 256 256 256 178 178 178 178 178 178 178 178 178 178 649 649 649 649 649 649 649 649 771 771 771 771 495 495 419 366 366 366 366 366 366 366 366 366 366 366 366 366 650 650 650 650 650 650 650 650 650 309 309 603 603 603 603 603 297 297 297 297 297 297 297 297 297 297 297 297 195 195 195 199 199 199 199 199 199 199 199 742 742 742 742 742 742 742 742 742 742 247 247 247 247 256 256 256 256 256 256 256 256 256 178 178 178 178 178 178 178 178 178 178 178 649 649 649 649 649 649 675 675 771 771 495 495 495 495 495 366 366 366 366 366 366 366 366 366 366 366 366 650 650 650 650 650 650 650 309 309 309 309 309 603 603 603 603 297 297 297 297 297 297 297 297 297 297 297 297 297 192 192 199 199 199 580 199 199 199 518 518 742 742 742 742 742 742 742 742 742 247 247 247 247 256 256 256 256 256 256 256 256 256 178 178 178 178 178 178 178 178 178 178 178 649 649 649 649 649 675 675 675 675 495 495 495 495 495 495 495 366 366 366 366 366 366 366 366 366 366 87 87 650 650 650 650 650 309 309 309 309 309 309 603 603 603 603 297 297 297 297 297 297 297 297 297 297 297 297 192 192 192 192 580 580 580 580 580 580 518 518 518 742 742 742 742 742 742 742 247 247 247 247 247 256 256 256 256 256 256 256 256 256 178 178 178 178 178 178 178 178 178 178 599 599 446 446 446 675 675 675 675 495 495 495 495 495 495 495 495 495 366 366 366 366 366 366 366 366 87 87 87 87 87 650 650 309 309 309 309 309 309 309 309 603 603 603 297 297 297 297 297 297 297 297 297 297 297 192 192 192 192 192 580 580 580 580 580 580 223 223 223 223 742 742 742 742 742 247 247 247 247 247 247 247 256 256 256 256 256 256 256 256 178 178 178 178 178 178 178 178 178 599 599 599 599 446 446 675 675 675 675 495 495 495 495 495 495 495 495 495 495 366 366 366 366 366 366 87 87 87 87 87 87 87 87 309 309 309 309 309 309 309 309 309 681 681 297 297 297 297 297 297 297 297 297 297 192 192 192 192 192 192 580 580 580 580 580 580 223 223 223 223 223 742 742 742 247 247 247 247 247 247 247 247 37 256 256 256 256 256 256 256 657 178 178 178 178 178 178 178 599 599 599 599 599 599 599 599 675 675 124 495 495 495 495 495 495 495 495 495 495 495 366 366 366 366 87 87 87 87 87 87 87 87 87 87 309 309 309 309 309 309 309 28 681 681 681 297 297 297 297 297 297 297 297 297 192 192 192 192 192 192 192 580 580 580 580 223 223 223 223 223 223 223 223 247 247 247 247 247 247 247 247 247 37 37 256 256 256 256 256 657 657 657 178 178 178 178 178 599 599 599 599 599 599 599 599 599 599 124 124 124 495 495 495 495 495 495 495 495 495 495 366 366 366 87 87 87 87 87 87 87 87 87 87 87 87 309 309 309 309 28 28 28 28 28 842 842 842 842 842 842 842 842 842 842 192 192 192 192 192 192 282 282 282 580 580 223 223 223 223 223 223 223 223 247 247 247 247 247 247 247 247 247 37 37 37 256 256 256 657 657 657 657 331 331 331 331 599 599 599 599 599 599 599 599 599 599 124 124 124 124 124 495 495 495 495 495 495 495 495 622 622 622 87 87 87 87 87 87 87 87 87 87 87 87 87 309 309 28 28 28 28 28 28 28 842 842 842 842 842 842 842 842 842 842 842 192 192 192 192 192 282 282 282 282 282 223 223 223 223 223 223 223 223 223 247 247 247 247 247 247 247 247 37 37 37 836 836 657 657 657 657 657 331 331 331 331 331 599 599 599 599 599 599 599 599 599 124 124 124 124 124 124 495 495 495 495 495 495 622 622 622 622 417 87 87 87 87 87 87 87 87 87 87 87 87 87 28 28 28 28 28 28 28 28 842 842 842 842 842 842 842 842 842 842 842 842 192 192 192 282 282 282 282 282 282 282 223 223 223 223 223 223 223 712 712 712 247 247 247 247 247 247 247 37 836 836 836 836 657 657 657 657 331 331 331 331 331 331 599 599 599 599 599 599 599 124 124 124 124 124 124 124 124 495 495 495 495 622 622 622 622 417 417 417 87 87 87 87 87 87 87 87 87 87 87 28 28 28 28 28 28 28 28 28 28 842 842 842 842 842 842 842 842 842 842 842 842 192 282 282 282 282 282 282 282 282 223 223 223 223 223 223 712 712 712 712 712 247 247 247 247 247 247 836 836 836 836 836 836 657 657 657 331 331 331 331 331 331 599 599 599 599 599 599 599 124 124 124 124 124 124 124 124 124 495 495 622 622 622 417 417 417 417 417 417 87 87 87 87 87 87 87 87 87 87 28 28 28 28 28 28 28 28 28 28 842 842 842 842 842 842 842 842 842 842 842 842 282 282 282 282 282 282 282 282 282 282 223 223 223 223 712 712 712 712 712 712 712 247 247 247 247 111 836 836 836 836 836 836 836 836 657 331 331 331 331 331 331 599 599 599 599 599 599 195 124 124 124 124 124 124 124 124 124 124 622 622 622 417 417 417 417 417 417 417 417 87 87 87 87 87 87 87 82 82 28 28 28 28 28 28 28 28 28 28 842 842 842 842 842 842 842 842 842 842 842 842 282 282 282 282 282 282 282 282 282 282 223 223 223 712 712 712 712 712 712 712 712 247 247 247 111 111 111 836 836 836 836 836 836 836 836 331 331 331 506 506 506 506 506 497 497 497 195 195 124 124 124 124 124 124 124 124 124 124 622 417 417 417 417 417 417 417 417 417 417 417 87 87 87 87 82 82 82 82 82 28 28 28 28 28 28 28 28 28 842 842 842 842 842 842 842 842 842 842 842 842 282 282 282 282 282 282 282 282 282 282 602 602 602 602 712 712 712 712 712 712 712 592 592 592 592 111 111 836 836 836 836 836 836 836 836 836 506 506 506 506 506 506 506 506 497 195 195 195 195 124 124 124 124 124 124 124 124 124 147 417 417 417 417 417 417 417 417 417 417 417 510 87 82 82 82 82 82 82 82 82 28 28 28 28 28 28 28 28 842 842 842 842 842 842 842 842 842 842 842 842 282 282 282 282 282 282 282 282 282 332 602 602 602 602 712 712 712 712 712 712 592 592 592 592 592 592 111 836 836 836 836 836 836 836 836 506 506 506 506 506 506 506 506 506 506 195 195 195 195 195 124 124 124 124 124 124 124 147 147 417 417 417 417 417 417 417 417 417 417 417 84 82 82 82 82 82 82 82 82 82 82 28 28 28 28 28 92 92 842 842 842 842 842 842 842 842 842 842 842 842 282 282 282 282 282 282 282 282 332 332 602 602 602 602 602 712 712 712 712 592 592 592 592 592 592 592 592 836 836 836 836 836 836 836 836 506 506 506 506 506 506 506 506 506 506 506 195 195 195 195 124 124 124 124 124 124 147 147 147 147 417 417 417 417 417 417 417 417 417 84 84 82 82 82 82 82 82 82 82 82 82 82 28 28 28 92 92 92 92 842 842 842 842 842 842 842 842 842 842 282 282 282 282 282 282 282 332 332 332 332 602 602 602 602 602 602 148 148 148 592 592 592 592 592 592 592 592 929 929 836 836 836 836 836 506 506 506 506 506 506 506 506 506 506 506 506 506 195 195 195 124 727 727 727 727 727 147 147 147 147 417 417 417 417 417 417 417 417 736 84 84 82 82 82 82 82 82 82 82 82 82 82 82 28 28 92 92 92 413 413 842 842 842 842 842 842 842 842 864 864 282 282 282 282 282 332 332 332 332 332 602 602 602 602 602 148 148 148 148 148 592 592 592 592 592 592 929 929 929 929 929 836 836 506 506 506 506 506 506 506 506 506 506 506 506 506 506 221 221 221 727 727 727 727 727 727 727 147 147 147 147 417 417 417 417 417 736 736 736 736 82 82 82 82 82 82 82 82 82 82 82 82 82 669 669 669 669 413 413 413 413 842 842 842 842 842 842 864 864 864 282 282 282 282 282 332 332 332 332 332 602 602 602 602 148 148 148 148 148 148 592 592 592 592 592 929 929 929 929 929 929 929 929 506 506 506 506 506 506 506 506 506 506 506 506 506 506 221 221 221 727 727 727 727 727 727 727 727 147 147 147 417 417 417 417 736 736 736 736 82 82 82 82 82 82 82 82 82 82 82 82 82 82 669 669 669 669 413 413 413 413 413 842 575 575 575 575 864 864 864 864 282 282 282 332 332 332 332 332 332 602 602 602 602 148 148 148 148 148 148 148 592 592 592 929 929 929 929 929 929 929 929 929 506 506 506 506 506 506 506 506 506 506 506 506 506 506 221 221 221 727 727 727 727 727 727 727 727 727 147 376 376 376 376 736 736 736 736 879 879 82 82 82 82 82 82 82 82 82 82 82 82 669 669 669 669 669 413 413 413 413 413 575 575 575 575 575 575 864 864 379 379 282 98 98 332 332 332 332 602 602 602 602 602 148 148 148 148 148 148 148 148 929 929 929 929 929 929 929 929 929 929 929 929 506 506 506 506 506 506 506 506 506 506 506 506 960 960 960 727 727 727 727 727 727 727 727 727 727 376 376 376 376 376 376 736 736 879 879 879 879 82 82 82 82 82 82 82 82 82 82 82 669 669 669 669 669 413 413 413 413 413 575 575 575 575 575 575 575 379 379 379 98 98 98 98 98 332 602 602 602 602 602 602 602 148 148 148 148 148 148 929 929 929 929 929 929 929 929 929 929 929 929 929 929 506 506 506 506 506 506 506 506 903 903 903 960 960 960 960 727 727 727 727 727 727 727 727 727 376 376 376 376 376 376 376 879 879 879 879 879 879 82 82 82 82 82 82 82 82 82 16 669 669 669 669 669 413 413 413 413 105 105 575 575 575 575 575 575 191 379 98 98 98 98 98 98 98 602 602 602 602 602 602 602 602 148 148 148 148 148 929 929 929 929 929 929 929 929 929 929 929 929 929 929 776 776 506 506 506 903 903 903 903 903 903 960 960 960 960 960 727 727 727 727 727 727 727 727 376 376 376 376 376 376 376 879 879 879 879 879 879 82 82 82 82 82 82 82 82 16 16 16 16 16 16 16 413 413 105 105 105 105 105 575 575 575 575 191 191 191 98 98 98 98 98 98 98 602 602 602 602 602 602 602 602 602 148 148 148 929 929 929 929 929 929 929 929 929 929 929 929 929 929 929 776 776 776 903 903 903 903 903 903 903 903 960 960 960 960 960 960 727 727 727 727 727 727 376 376 376 376 376 376 376 601 879 879 879 879 879 879 505 505 505 505 505 82 82 16 16 16 16 16 16 16 16 16 105 105 105 105 105 105 105 978 978 978 191 191 191 98 98 98 98 98 98 98 602 602 602 602 602 602 602 602 602 602 602 148 929 929 929 929 929 929 929 929 929 929 929 929 929 929 776 776 776 776 903 903 903 903 903 903 903 903 960 960 960 960 960 969 969 969 727 727 727 93 93 376 376 376 376 376 601 601 601 879 879 879 505 505 505 505 505 505 505 505 16 16 16 16 16 16 16 16 16 16 631 105 105 105 105 105 978 978 978 978 978 191 191 98 98 98 98 98 98 602 602 602 602 602 602 602 602 602 602 602 602 602 929 929 929 929 929 929 929 929 929 929 929 929 929 929 776 776 776 776 903 903 903 903 903 903 903 903 903 960 960 960 969 969 969 969 969 969 93 93 93 93 376 376 376 601 601 601 601 984 984 505 505 505 505 505 505 505 505 505 505 16 16 16 16 16 16 16 16 631 631 631 105 105 105 978 978 978 978 978 978 978 978 98 98 98 98 98 98 602 602 602 602 602 602 602 602 602 602 602 602 602 929 929 929 929 929 929 929 929 929 929 929 929 929 929 776 776 776 776 776 903 903 903 903 903 903 903 903 903 960 969 969 969 969 969 969 969 93 93 93 93 93 93 601 601 601 601 984 984 984 505 505 505 505 505 505 505 505 505 505 16 16 16 16 16 16 16 631 631 631 631 631 105 978 978 978 978 978 978 978 978 978 98 98 98 98 98 98 602 602 602 602 602 602 602 602 602 602 602 602 602 602 929 929 929 929 929 929 929 929 929 929 929 929 754 754 776 776 776 776 903 903 903 903 903 903 903 903 903 969 969 969 969 969 969 969 969 93 93 93 93 93 93 601 601 601 601 984 984 984 505 505 505 505 505 505 505 505 505 505 16 16 16 16 16 16 631 631 631 631 631 631 631 978 978 978 978 978 978 978 978 978 978 98 98 98 98 602 602 602 602 602 602 602 602 602 602 602 602 602 602 602 929 929 929 929 929 929 929 929 929 929 929 754 754 754 754 776 776 776 776 903 903 903 903 903 903 903 903 969 969 969 969 969 969 969 969 93 93 93 93 93 93 93 601 601 984 984 984 984 505 505 505 505 505 505 505 505 505 505 505 16 16 16 16 631 631 631 631 631 631 631 631 978 978 978 978 978 978 978 978 978 978 978 365 365 365 365 602 602 602 602 602 602 602 602 602 602 602 602 602 252 252 77 929 929 929 929 929 929 929 551 551 754 754 754 754 754 754 776 776 903 903 903 903 903 903 903 903 846 969 969 969 969 969 969 969 93 93 93 93 93 93 93 93 984 984 984 984 984 505 505 505 505 505 505 505 505 505 505 505 16 16 16 631 631 631 631 631 631 631 631 631 978 978 978 978 978 978 978 978 978 978 365 365 365 365 365 365 602 602 602 602 602 602 602 602 602 602 602 252 252 252 252 406 406 406 929 929 551 551 551 551 551 754 754 754 754 754 676 676 676 903 903 903 903 903 903 846 846 846 969 969 969 969 969 969 93 93 93 93 93 93 93 93 93 707 707 707 707 707 505 505 505 505 505 505 505 505 505 505 661 16 631 631 631 631 631 631 631 631 631 631 631 978 978 978 978 978 978 978 978 365 365 365 365 365 365 365 365 602 602 602 602 602 602 602 602 602 252 252 252 252 252 406 406 406 406 551 551 551 551 551 551 551 754 754 754 676 676 676 676 676 676 903 903 903 846 846 846 846 846 969 969 969 969 969 93 93 93 93 93 93 93 93 93 707 707 707 707 707 707 505 505 505 505 505 505 505 505 661 661 661 631 631 631 631 631 631 631 631 631 631 631 978 978 978 978 978 978 978 978 365 365 365 365 365 365 365 365 365 732 732 732 732 732 602 602 252 252 252 252 252 252 406 406 406 406 551 551 551 551 551 551 551 551 754 676 676 676 676 676 676 676 676 903 846 846 846 846 846 846 846 969 969 969 969 93 93 93 93 93 93 93 93 707 707 707 707 707 707 707 707 505 505 505 505 505 505 661 661 661 661 661 631 631 631 631 631 631 631 631 631 631 611 978 978 978 978 978 978 365 365 365 365 365 365 365 365 365 732 732 732 732 732 732 732 732 252 252 252 252 252 252 406 406 406 406 551 551 551 551 551 551 551 551 676 676 676 676 676 676 676 676 676 201 201 201 846 846 846 846 846 760 760 609 609 483 483 93 93 93 93 93 93 707 707 707 707 707 707 707 953 953 953 505 505 505 443 661 661 661 661 661 631 631 631 631 631 631 631 631 631 611 611 611 978 978 978 978 978 365 365 365 365 365 365 365 365 365 732 732 732 732 732 732 732 732 252 252 252 252 252 252 406 406 406 406 551 551 551 551 551 551 551 551 676 676 676 676 676 676 676 676 201 201 201 201 201 846 846 846 760 760 760 760 609 483 483 483 483 542 542 542 542 542 647 647 647 707 707 953 953 953 953 953 443 443 443 443 661 661 661 661 661 631 631 631 631 631 631 631 611 611 611 611 611 978 529 529 529 365 365 365 365 365 365 365 365 732 732 732 732 732 732 732 732 732 252 252 252 252 252 333 333 406 406 406 551 551 551 551 551 551 551 676 676 676 676 676 676 676 676 676 201 201 201 201 201 846 846 760 760 760 760 760 760 483 483 483 483 542 542 542 542 542 647 647 647 647 647 953 953 953 953 953 443 443 443 443 443 661 661 661 731 631 631 41 41 41 41 41 611 611 611 611 611 529 529 529 529 529 529 365 158 158 158 158 158 158 732 732 732 732 732 732 732 732 732 252 252 252 333 333 333 333 944 944 551 551 551 551 551 551 551 676 676 676 676 676 676 676 676 201 201 201 201 201 201 201 760 760 760 760 760 760 760 760 483 483 259 542 542 542 542 542 647 647 647 647 647 953 953 953 953 953 443 443 443 443 443 731 731 731 731 731 41 41 41 41 41 41 41 611 611 611 529 529 529 529 529 529 529 529 158 158 158 158 158 158 158 732 732 732 732 732 732 732 732 252 252 333 333 333 333 333 944 944 916 551 551 551 551 551 676 676 676 676 676 676 676 676 676 201 201 201 201 201 201 870 870 760 760 760 760 760 760 760 259 259 259 259 259 542 542 542 647 647 647 647 647 953 953 953 953 443 443 443 443 443 443 731 731 731 731 731 41 41 41 41 41 41 41 41 41 529 529 529 529 529 529 529 529 158 158 158 158 158 158 158 158 158 732 732 732 732 732 732 116 116 116 333 333 693 693 693 693 916 916 916 916 916 551 763 763 763 763 763 763 763 763 763 763 201 201 201 201 201 870 870 870 870 760 760 760 760 760 760 259 259 259 259 259 259 542 542 647 647 647 647 877 877 877 877 877 443 443 443 443 443 731 731 731 731 731 731 41 41 41 41 41 41 41 41 41 41 529 529 529 529 529 529 529 158 158 158 158 158 158 158 158 158 116 116 116 116 116 116 116 116 116 693 693 693 693 693 693 916 916 916 916 916 916 763 763 763 763 763 763 763 763 763 763 763 201 201 201 870 870 870 870 870 760 760 760 760 760 760 259 259 259 259 259 259 259 384 384 384 384 384 877 877 877 877 877 338 338 338 338 731 731 731 731 731 731 731 41 41 41 41 41 41 41 41 41 41 529 529 529 529 529 529 529 158 158 158 158 158 158 158 158 158 116 116 116 116 116 116 116 116 116 693 693 693 693 693 693 693 916 916 916 916 916 763 763 763 763 763 763 763 763 763 763 763 763 201 870 870 870 870 870 870 760 760 760 760 760 760 259 259 259 259 259 259 384 384 384 384 384 384 877 877 877 877 338 338 338 338 338 731 731 731 731 731 731 731 731 41 41 41 41 41 41 41 41 41 529 529 529 529 529 529 529 158 158 158 158 158 158 158 158 158 116 116 116 116 116 116 116 116 116 693 693 693 693 693 693 693 693 916 916 916 763 763 763 763 763 763 763 763 763 763 763 763 763 763 870 870 870 870 870 870 760 760 760 760 760 760 531 259 259 259 259 384 384 384 384 384 384 384 384 877 877 877 338 338 338 338 338 731 731 731 731 731 731 731 731 41 41 41 41 41 41 41 41 41 645 645 645 645 645 645 158 158 158 158 158 158 158 158 131 131 116 116 116 116 116 116 116 116 116 693 693 693 693 693 693 693 693 693 867 867 763 763 763 763 763 763 763 763 763 763 763 763 763 763 870 870 870 870 870 531 531 531 531 531 531 531 531 531 259 259 259 384 384 384 384 384 384 384 384 877 877 338 338 338 338 338 338 731 731 731 731 731 731 731 731 41 41 41 41 41 41 41 41 645 645 645 645 645 645 645 645 158 158 158 158 158 131 131 131 131 131 116 116 116 116 116 116 116 116 693 693 693 693 693 693 693 693 867 867 867 763 763 763 763 763 763 763 763 763 763 763 763 763 873 873 870 870 531 531 531 531 531 531 531 531 531 531 531 531 259 384 384 384 384 384 384 384 384 366 366 366 338 338 338 338 338 338 338 731 731 731 731 731 731 731 41 41 41 41 41 41 41 645 645 645 645 645 645 645 645 645 645 645 158 158 131 131 131 131 131 131 131 116 116 116 116 116 116 116 693 693 693 693 693 693 693 867 867 867 867 763 763 763 763 763 763 763 763 763 763 763 763 873 873 873 873 531 531 531 531 531 531 531 531 531 531 531 531 531 531 384 384 384 384 384 384 384 366 366 366 366 338 338 338 338 338 338 338 731 731 731 731 731 731 731 41 41 41 41 41 41 645 645 645 645 645 645 645 645 645 645 645 645 477 131 131 131 131 131 131 131 131 131 116 116 116 116 116 116 693 693 693 693 693 693 693 867 867 867 867 763 763 763 763 763 763 763 763 763 763 763 873 873 873 873 873 531 531 531 531 531 531 531 531 531 531 531 531 531 531 471 384 384 384 384 384 366 366 366 366 366 338 338 338 338 338 338 338 731 731 731 731 731 731 731 41 41 41 41 41 41 645 645 645 645 645 645 645 645 645 645 645 113 113 131 131 131 131 131 131 131 131 131 131 116 116 116 116 116 693 693 693 693 693 693 867 867 867 867 867 867 763 763 763 763 763 763 763 763 763 873 873 873 873 873 873 531 531 531 531 531 531 531 531 531 531 531 531 531 531 471 471 384 384 384 366 366 366 366 366 366 298 338 338 338 338 338 338 731 731 731 731 731 731 731 731 41 41 41 41 645 645 645 645 645 645 645 645 645 645 645 645 113 113 131 131 131 131 131 131 131 131 131 131 978 978 978 978 908 908 908 908 623 623 867 867 867 867 867 867 867 763 763 763 763 763 763 944 944 944 873 873 873 873 873 873 531 531 531 531 531 531 531 531 531 531 531 531 531 531 471 471 471 384 384 366 366 366 366 366 298 298 298 298 338 338 338 338 731 731 731 731 731 731 731 731 122 41 41 645 645 645 645 645 645 645 645 645 645 645 645 113 113 113 113 131 131 131 131 131 131 131 131 978 978 978 978 978 908 908 908 908 908 623 867 867 867 867 867 867 867 763 763 944 944 944 944 944 944 944 873 873 873 873 873 873 531 531 531 531 531 531 531 531 531 531 531 531 531 471 471 471 471 471 471 366 366 298 298 298 298 298 298 298 298 298 338 136 731 731 731 731 731 731 731 122 122 122 122 645 645 645 645 645 645 645 645 645 645 113 113 113 113 113 113 131 131 131 131 131 131 131 131 978 978 978 978 908 908 908 908 908 908 908 867 867 867 867 867 867 867 763 763 944 944 944 944 944 944 944 944 873 873 873 873 525 531 531 531 531 531 531 531 531 531 531 531 531 91 91 471 471 471 471 471 298 298 298 298 298 298 298 298 298 298 298 298 136 136 731 731 731 731 731 122 122 122 122 122 122 645 645 645 645 645 645 645 113 113 113 113 113 113 113 113 131 131 131 131 131 131 131 131 978 978 978 978 908 908 908 908 908 908 908 965 965 965 965 965 965 965 944 944 944 944 944 944 944 944 944 944 873 873 873 525 525 525 531 531 531 531 531 531 531 531 531 531 91 91 91 91 471 471 471 298 298 298 298 298 298 298 298 298 298 298 298 298 136 136 634 634 634 634 634 122 122 122 122 122 122 113 113 113 113 113 113 113 113 113 113 113 113 113 113 113 731 731 731 731 731 731 731 187 187 978 978 550 908 908 908 908 908 908 908 965 965 965 965 965 965 965 965 965 944 944 944 944 944 944 944 944 944 525 525 525 525 525 531 531 531 531 531 531 531 531 531 91 91 91 91 91 91 91 298 298 298 298 298 298 298 298 298 298 298 298 298 298 136 136 634 634 634 634 634 634 122 122 122 107 107 107 113 113 113 113 113 113 113 113 113 113 113 113 113 570 731 731 731 731 731 731 731 187 187 187 937 937 937 908 908 908 908 908 965 965 965 965 965 965 965 965 965 965 965 944 944 944 944 944 944 944 496 496 525 525 525 525 265 265 265 531 531 531 531 531 91 91 91 91 91 91 91 91 298 298 298 298 298 298 298 298 298 298 298 298 298 298 136 634 634 634 634 634 634 634 634 107 107 107 107 107 113 113 113 113 113 113 113 113 113 113 113 113 113 570 731 731 731 731 731 731 187 187 187 187 937 937 937 937 908 908 908 965 965 965 965 965 965 965 965 965 965 965 965 965 944 944 944 944 496 496 496 496 496 496 265 265 265 265 265 265 531 531 531 315 91 91 91 91 91 91 91 91 298 298 298 298 298 298 298 298 298 298 298 298 298 298 634 634 634 634 634 634 634 634 634 107 107 107 107 107 107 113 113 113 113 113 113 113 113 113 113 113 186 186 186 186 186 731 731 731 187 187 187 937 937 937 937 937 937 908 965 965 965 965 965 965 965 965 965 965 965 965 965 965 965 944 944 496 496 496 496 496 496 496 265 265 265 265 265 265 265 315 315 315 315 91 91 91 91 91 91 437 196 298 298 298 298 298 298 298 298 298 298 298 298 298 634 634 634 634 634 634 634 634 634 107 107 107 107 107 107 107 113 113 113 113 113 113 113 113 113 186 186 186 186 186 186 186 186 731 187 187 937 937 937 937 937 937 937 937 724 965 965 965 965 965 965 965 965 965 965 965 965 965 965 965 496 496 496 496 496 496 496 496 265 265 265 265 265 265 265 315 315 315 315 91 91 91 91 437 437 196 196 196 298 298 298 298 298 298 298 298 298 298 298 634 634 634 634 634 634 634 634 634 634 107 107 107 107 107 107 107 107 397 397 397 397 113 113 113 186 186 186 186 186 186 186 186 186 186 937 937 937 937 937 937 937 937 937 937 724 965 965 965 965 965 965 965 965 965 965 965 965 965 965 965 496 496 496 496 496 496 496 496 265 265 265 265 265 265 752 315 315 315 315 91 91 91 437 437 437 196 196 196 298 298 298 298 298 298 298 298 298 298 979 634 634 634 634 634 634 634 634 634 634 107 107 107 107 107 107 107 107 397 397 397 397 397 186 186 186 186 186 186 186 186 186 186 186 186 937 937 937 937 937 937 937 937 937 937 937 965 965 965 965 965 965 965 965 965 965 965 965 965 965 965 496 496 496 496 496 496 496 496 265 265 265 265 752 752 752 752 315 315 315 91 91 437 437 437 437 196 196 196 202 202 202 298 298 298 298 298 298 979 979 979 634 634 634 634 634 634 634 634 634 107 107 107 107 107 107 107 107 397 397 397 397 397 186 186 186 186 186 186 186 186 186 186 186 186 937 937 937 937 937 937 937 937 937 937 937 965 965 965 965 965 965 965 965 965 965 965 965 965 965 965 496 496 496 496 496 496 496 496 265 265 752 752 752 752 752 752 752 752 671 671 871 871 437 437 196 196 196 202 202 202 202 202 202 298 298 298 979 979 979 979 634 634 634 634 634 634 634 634 634 107 107 107 107 107 107 107 107 397 397 397 397 186 186 186 186 186 186 186 186 186 186 186 186 186 186 937 937 937 937 937 937 937 937 937 937 965 965 965 965 965 965 965 965 965 965 965 965 965 965 965 496 496 496 496 496 496 496 496 265 752 752 752 752 752 752 752 752 752 671 671 871 871 871 871 196 196 202 202 202 202 202 202 202 202 202 202 979 979 979 979 979 634 634 634 634 634 634 634 239 107 107 107 107 107 107 107 107 397 397 397 397 186 186 186 186 186 186 186 186 186 186 186 186 186 186 823 823 823 937 937 937 937 937 937 937 965 965 965 965 965 965 965 965 965 965 965 965 965 965 566 566 566 496 496 496 496 496 721 721 752 752 752 752 752 752 752 752 752 671 871 871 871 871 871 871 202 202 202 202 202 202 202 202 202 202 202 202 979 979 979 979 979 634 634 634 634 239 239 239 239 107 107 107 107 107 107 107 793 793 793 793 186 186 186 186 186 186 186 186 186 186 186 186 186 186 823 823 823 823 937 937 937 937 937 225 225 965 965 965 965 965 965 965 965 965 965 965 965 566 566 566 566 566 496 496 496 721 721 721 721 752 752 752 752 752 752 752 752 871 871 871 871 871 871 871 871 202 202 202 202 202 202 202 202 202 202 202 202 979 979 979 979 979 239 239 239 239 239 239 239 239 107 107 107 107 107 793 793 793 793 793 186 186 186 186 186 186 186 186 186 186 186 186 186 186 465 465 465 465 465 465 465 465 225 225 225 225 965 965 965 965 965 965 965 965 965 965 118 118 566 566 566 566 188 188 721 721 721 721 721 721 752 752 752 752 752 752 752 871 871 871 871 871 871 871 871 202 202 202 202 202 202 202 202 202 202 202 202 290 290 979 979 239 239 239 239 239 239 239 239 239 239 107 107 107 933 793 793 793 793 793 793 186 186 186 186 186 186 186 186 186 186 186 860 860 465 465 465 465 465 465 465 465 225 225 225 225 225 965 965 965 965 965 965 965 118 118 118 118 118 566 566 188 188 188 188 721 721 721 721 721 721 752 752 752 752 752 788 871 871 871 871 871 871 871 871 871 202 202 202 202 202 202 202 202 202 290 290 290 290 290 239 239 239 239 239 239 239 239 239 239 239 239 933 933 933 933 793 793 793 793 186 186 186 186 186 186 186 186 186 186 186 860 860 860 465 465 465 465 465 465 465 465 225 225 225 225 225 225 965 965 965 965 965 118 118 118 118 118 118 118 188 188 188 188 188 721 721 721 721 721 721 721 788 788 788 788 788 788 871 871 871 871 871 871 871 420 420 420 420 202 202 202 202 202 290 290 290 290 290 290 239 239 239 239 239 239 239 239 239 239 239 239 933 933 933 933 933 933 793 793 186 186 186 186 186 186 186 186 186 186 860 860 860 860 465 465 465 465 465 465 465 465 225 225 225 225 225 225 225 965 965 965 965 118 118 118 118 118 118 118 188 188 188 188 188 188 721 721 721 721 721 788 788 788 788 788 788 788 788 871 871 871 871 420 420 420 420 420 420 420 420 420 420 290 290 290 290 290 290 290 239 239 239 239 239 239 239 239 239 239 239 239 933 933 933 933 933 933 933 933 186 186 186 186 186 186 186 186 186 186 860 860 860 860 860 465 465 465 465 465 465 465 225 225 225 225 225 225 123 123 965 756 756 756 118 118 118 118 118 118 188 188 188 188 188 188 80 80 80 80 80 788 788 788 788 788 788 788 788 871 871 871 420 420 420 420 420 420 420 420 420 420 420 290 290 290 290 290 290 290 239 239 239 239 239 239 239 239 239 239 239 239 933 933 933 933 933 933 933 933 717 717 186 186 186 186 186 186 186 845 860 860 860 860 860 465 465 465 465 465 465 465 225 225 225 225 225 123 123 123 123 756 756 756 756 118 118 118 118 118 188 188 188 188 188 80 80 80 80 80 80 80 788 788 788 788 788 788 788 788 420 420 420 420 420 420 420 420 420 420 420 420 420 438 290 290 290 290 290 290 239 239 239 239 239 239 239 239 239 239 239 239 933 933 933 933 933 933 933 717 717 717 717 186 186 186 186 845 845 845 170 860 860 248 248 248 465 465 465 465 882 882 882 225 225 225 123 123 123 123 123 756 756 756 756 756 118 118 118 161 188 188 188 188 80 80 80 80 80 80 80 80 80 788 788 788 788 788 788 788 420 420 420 420 420 420 420 420 420 420 420 420 420 438 438 290 290 290 290 290 239 239 239 239 239 239 239 239 239 239 239 458 933 933 933 933 933 933 933 717 717 717 717 717 717 717 772 772 845 845 170 248 248 248 248 248 248 465 882 882 882 882 882 882 882 123 123 123 123 123 123 123 756 756 756 756 756 642 161 161 161 188 188 80 80 80 80 80 80 80 80 80 80 80 788 788 788 788 788 871 871 420 420 420 420 420 420 420 420 420 420 420 420 438 438 438 290 290 927 927 239 239 239 239 239 239