<?xml version="1.0"?>
<VTKFile type="ImageData" version="0.1" byte_order="LittleEndian">
<ImageData WholeExtent="0 100 0 100 0 100" Origin="0 0 0" Spacing="1 1 1">
<Piece Extent="0 100 0 100 0 100">
<PointData>
</PointData>
<CellData Scalars="Spin">
<DataArray type="Int32" Name="Spin" format="ascii" RangeMin="0" RangeMax="10000">
895 895 673 673 929 929 929 929 929 929 929 230 230 40 40 40 40 40 810 810 810 810 581 581 581 581 581 984 581 987 987 987 987 987 987 987 705 705 705 180 180 180 180 180 180 180 180 180 180 995 995 12 12 12 12 12 12 12 12 12 12 12 12 12 12 428 428 428 428 428 428 428 428 428 18 18 18 18 18 18 256 256 256 256 256 256 256 256 243 243 243 243 243 895 895 895 895 895 895 895 895 673 673 673 673 929 929 929 929 230 230 230 230 230 40 40 40 294 294 294 810 810 810 581 581 581 984 893 893 987 987 987 987 987 987 987 987 705 180 180 180 180 180 180 180 180 180 180 180 180 103 103 12 12 12 12 12 12 12 12 12 12 12 12 12 428 428 428 428 428 428 428 428 428 18 18 18 18 18 18 256 256 256 256 256 256 256 256 243 243 243 243 243 895 895 895 895 895 895 895 673 673 673 673 673 673 230 230 230 230 230 230 230 230 204 294 294 294 294 294 294 294 294 294 294 294 893 893 893 987 987 987 987 987 987 987 987 987 180 180 180 180 180 180 180 180 180 180 180 103 103 103 103 12 12 12 12 12 12 12 12 12 12 12 428 428 428 428 428 428 428 428 428 18 18 18 18 18 18 18 644 644 644 644 644 644 644 644 243 243 243 243 722 722 722 895 895 895 895 895 673 673 673 673 673 673 673 230 230 230 230 230 230 204 204 294 294 294 294 294 294 294 294 294 294 294 893 893 893 987 987 987 987 987 987 987 987 982 982 180 180 180 180 180 180 180 180 180 103 103 103 103 103 103 12 12 12 12 12 12 12 12 12 12 428 428 428 428 428 428 428 428 80 18 18 18 18 18 18 644 644 644 644 644 644 644 644 644 644 243 243 722 722 722 722 722 722 895 673 673 673 673 673 673 673 673 673 230 230 230 230 230 230 204 204 294 294 294 294 294 294 294 294 294 294 336 336 336 893 987 987 987 987 982 982 982 982 982 982 982 180 180 180 180 180 565 565 565 103 103 103 103 103 103 404 404 404 404 404 12 12 12 12 12 428 428 428 428 428 428 428 80 80 80 18 18 18 18 644 644 644 644 644 644 644 644 644 644 644 644 722 722 722 722 722 722 722 722 673 673 673 673 673 673 673 673 673 230 230 230 230 230 204 204 204 294 294 294 294 294 294 294 294 294 294 336 336 336 336 982 982 982 982 982 982 982 982 982 982 982 982 565 565 565 565 565 565 565 565 103 103 103 103 404 404 404 404 404 404 404 404 404 404 916 916 916 428 822 822 822 822 80 80 698 698 18 18 644 644 644 644 644 644 644 644 644 644 644 644 644 722 722 722 722 722 722 722 722 673 673 673 673 673 673 673 673 673 230 230 230 230 230 204 204 204 294 294 294 294 294 294 294 294 4 4 336 374 374 374 982 982 982 982 982 982 982 982 982 982 982 982 565 565 565 565 565 565 565 565 565 103 103 404 404 404 404 404 404 404 404 404 404 404 916 916 916 822 822 822 822 822 822 80 698 698 698 644 644 644 644 644 644 644 644 644 644 644 644 644 644 722 722 722 722 722 722 722 722 673 673 673 673 673 673 673 673 673 788 788 788 788 788 204 204 204 294 294 294 294 294 294 294 294 4 4 374 374 374 374 374 982 982 982 982 982 982 982 982 982 982 982 565 565 565 565 565 565 565 565 565 565 404 404 404 404 404 404 404 404 404 404 404 404 916 916 822 822 822 822 822 822 822 822 698 698 860 860 644 644 644 644 644 644 644 644 644 644 644 644 644 706 706 722 722 722 722 722 722 722 673 673 673 673 673 673 673 788 788 788 788 788 788 204 204 204 294 294 294 294 294 294 294 4 4 4 374 374 374 374 374 982 982 982 982 982 982 982 982 982 982 982 565 565 565 565 565 565 565 565 565 565 404 404 404 404 404 404 404 404 404 404 404 404 916 822 822 822 822 822 822 822 822 822 822 860 860 860 860 644 644 644 644 644 644 644 644 644 644 644 706 706 706 706 722 722 722 722 722 722 673 673 673 673 673 673 788 788 788 788 788 788 788 788 204 799 799 799 294 294 385 385 294 4 4 374 374 374 374 374 374 374 982 982 982 982 982 982 982 982 982 982 565 565 565 565 565 565 565 565 565 565 404 404 404 404 404 404 404 404 404 404 404 404 822 822 822 822 822 822 822 822 822 822 822 860 860 860 860 860 644 644 644 644 644 644 644 644 644 706 706 706 706 706 706 722 722 722 722 587 587 587 587 587 587 587 788 788 788 788 788 788 788 788 799 799 799 799 799 385 385 385 385 671 374 374 374 374 374 374 374 374 982 982 982 982 982 982 982 982 982 982 565 565 565 565 565 565 565 565 565 565 404 404 404 404 404 404 404 404 404 404 512 512 512 822 822 822 822 822 822 822 822 822 822 860 860 860 860 860 860 644 644 644 644 644 644 644 706 706 706 706 706 706 706 706 722 722 587 587 587 587 587 587 587 587 788 788 788 788 788 788 788 788 799 799 799 799 799 799 385 385 671 671 671 374 374 374 374 374 374 374 982 982 982 982 982 982 982 982 982 982 565 565 565 565 565 565 565 565 565 244 244 404 404 404 404 404 404 404 404 512 512 512 512 512 512 822 822 822 822 822 822 822 115 115 860 860 860 860 860 860 644 644 644 644 644 706 706 706 706 706 706 706 706 706 706 587 587 587 587 587 587 587 587 587 788 788 788 788 788 788 788 788 799 799 799 799 799 799 385 671 671 671 671 671 374 374 374 374 374 374 374 982 982 982 982 982 982 982 982 575 575 565 565 565 565 565 565 565 244 244 244 244 404 404 404 404 404 404 512 512 512 512 512 512 512 512 512 512 822 822 822 115 115 115 115 860 860 860 860 860 860 644 644 644 706 706 706 706 706 706 706 706 706 706 706 587 587 587 587 587 587 587 587 587 587 788 788 788 788 788 788 788 799 799 799 799 799 799 671 671 671 671 671 671 671 374 374 374 374 374 374 982 982 982 982 982 982 575 575 575 575 575 565 565 565 565 565 244 244 244 244 244 244 404 905 905 905 512 512 512 512 512 512 512 512 512 512 512 512 512 115 115 115 115 115 115 860 860 860 860 860 583 583 583 583 706 706 706 706 706 706 706 706 706 706 587 587 587 587 587 587 587 587 587 943 943 943 943 943 943 943 943 799 799 799 799 799 799 671 671 671 671 671 671 671 671 374 374 374 374 374 833 982 982 982 982 575 575 575 575 575 575 575 565 565 565 244 244 244 244 244 244 244 905 905 905 905 905 512 512 512 512 512 512 512 512 512 512 512 512 115 115 115 115 115 115 115 860 860 860 583 583 583 583 583 583 706 706 706 706 706 706 706 706 706 587 587 587 587 587 587 587 587 943 943 943 943 943 943 943 943 943 943 799 799 799 799 671 671 671 671 671 671 671 671 671 374 374 374 374 833 833 833 833 833 575 575 575 575 575 575 575 575 10 10 10 244 244 244 244 244 244 905 905 905 905 905 905 512 512 512 512 512 512 512 512 512 512 512 512 115 115 115 115 115 115 115 115 860 583 583 583 583 583 583 583 583 706 706 706 706 706 706 706 706 587 587 587 587 587 587 587 587 943 943 943 943 943 943 943 943 943 943 943 799 799 671 671 671 671 671 671 671 671 671 671 671 374 374 833 833 833 833 833 833 575 575 575 575 575 575 575 575 10 10 10 10 244 244 244 244 905 905 905 905 905 905 905 905 512 512 512 512 512 512 512 512 512 512 512 115 115 115 115 115 115 115 115 583 583 583 583 583 583 583 583 583 583 311 311 311 311 311 311 311 587 587 587 587 587 587 587 780 943 943 943 943 943 943 943 943 943 943 943 264 671 671 671 671 671 671 671 671 671 671 671 671 671 833 833 833 833 833 833 833 833 575 575 575 575 575 575 10 10 10 10 10 10 10 244 905 905 905 905 905 905 905 905 905 512 512 512 512 512 512 512 512 512 512 512 512 115 115 115 115 115 115 115 583 583 583 583 583 583 583 583 583 583 311 311 311 311 311 311 311 311 587 587 587 587 587 194 194 943 943 943 943 943 943 943 943 943 943 264 264 264 671 671 671 671 671 671 671 671 671 671 671 720 833 833 833 833 833 833 833 833 833 575 575 575 575 10 10 10 10 10 10 10 10 991 905 905 905 905 905 905 905 905 905 905 512 512 512 512 512 512 512 512 512 512 512 115 115 115 115 115 115 115 583 583 583 583 583 583 583 583 583 583 311 311 311 311 311 311 311 311 311 587 587 587 194 194 194 194 943 943 943 943 943 943 943 943 943 264 264 264 59 59 59 59 671 671 671 671 671 671 671 720 833 833 833 833 833 833 833 833 833 575 575 575 10 10 10 10 10 10 10 10 10 991 905 905 905 905 905 905 905 905 905 905 512 512 512 512 512 512 512 512 512 512 386 386 386 115 115 115 115 583 583 583 583 583 583 583 583 583 583 583 311 311 311 311 311 311 311 311 311 311 587 175 194 194 194 194 194 943 943 943 943 943 943 943 211 211 211 59 59 59 59 59 59 59 671 671 671 671 294 833 833 833 833 833 833 833 833 833 833 514 514 10 10 10 10 10 10 10 10 10 991 991 991 905 905 905 905 905 905 905 905 905 512 512 512 512 512 512 512 512 512 386 386 386 386 386 115 115 583 583 583 583 583 583 583 583 583 583 583 583 311 311 311 311 311 311 311 311 311 175 175 175 194 194 194 194 194 194 943 943 943 943 994 994 994 211 59 59 59 59 59 59 59 59 59 59 294 294 294 294 833 833 833 833 833 833 833 833 833 514 514 10 10 10 10 10 10 10 10 10 991 991 991 905 905 905 905 905 905 905 905 905 512 512 512 512 512 512 512 512 386 386 386 386 386 386 386 583 583 583 583 583 583 583 583 583 583 583 583 583 533 311 311 311 311 311 311 311 175 175 175 175 194 194 194 194 194 194 194 943 943 994 994 994 994 681 59 59 59 59 59 59 59 59 59 59 294 294 294 294 833 833 833 833 833 833 833 569 569 569 569 10 10 10 10 10 10 10 10 991 280 280 280 280 905 905 905 905 905 905 905 905 512 512 512 512 512 512 512 386 386 386 386 386 386 386 386 583 583 583 583 583 583 583 583 583 583 583 533 533 533 533 311 311 311 311 311 311 175 175 175 175 194 194 194 194 194 194 194 768 994 994 994 994 994 977 977 59 59 59 59 59 59 59 59 59 294 294 294 294 294 833 833 833 833 833 569 569 569 569 569 569 10 10 10 10 10 10 10 280 280 280 280 280 280 905 905 905 905 905 905 878 878 512 512 512 512 512 386 386 386 386 386 386 386 386 386 386 583 583 583 583 583 583 583 583 583 533 533 533 533 533 533 311 311 311 311 311 175 175 175 175 194 194 194 194 194 194 768 768 768 994 994 994 977 977 977 977 59 59 59 59 59 59 59 798 294 294 294 294 954 954 954 833 569 569 569 569 569 569 569 569 569 10 10 10 10 10 280 280 280 280 280 280 140 140 140 140 140 140 140 878 878 575 575 575 575 575 386 386 386 386 386 386 386 386 386 386 583 583 583 583 583 583 583 583 533 533 533 533 533 533 533 533 533 533 311 175 175 175 175 175 194 194 194 194 194 768 768 768 768 768 994 977 977 977 977 977 977 59 59 59 59 59 798 798 798 294 294 954 954 954 954 569 569 569 569 569 569 569 569 569 569 983 10 10 10 280 280 280 280 280 280 140 140 140 140 140 140 140 140 140 575 575 575 575 575 575 575 386 386 386 386 386 386 386 386 254 254 254 583 583 583 583 583 533 533 533 533 533 533 533 533 533 533 533 533 175 175 175 175 972 972 194 194 194 768 768 768 768 768 768 977 977 977 977 977 977 977 977 59 59 59 798 798 798 798 239 239 239 954 954 954 569 569 569 569 569 569 569 569 569 983 983 983 983 841 280 280 280 280 280 280 140 140 140 140 140 140 140 140 140 575 575 575 575 575 575 575 575 386 386 386 386 386 386 254 254 254 254 254 583 583 583 533 533 533 533 533 533 533 533 533 533 533 533 533 533 175 175 175 972 972 972 972 768 768 768 768 768 768 768 977 977 977 977 977 977 977 977 977 396 396 396 798 798 239 239 239 239 239 954 954 569 569 569 569 569 569 569 569 983 983 983 983 983 841 841 280 280 833 833 833 652 140 140 140 140 140 140 140 140 575 575 575 575 575 575 575 575 575 386 386 628 628 628 254 254 254 254 254 254 254 533 533 533 533 533 533 533 533 533 533 533 533 533 533 533 972 972 972 972 972 972 972 768 768 768 768 768 768 768 977 977 977 977 977 977 977 977 977 396 396 396 396 239 239 239 239 239 239 239 239 161 569 569 569 569 569 569 983 983 983 841 841 841 841 841 841 833 833 833 652 652 652 652 140 140 140 140 140 140 575 575 575 575 575 575 575 575 575 59 59 628 628 628 34 254 254 254 254 254 254 533 533 533 533 533 533 533 533 533 533 533 533 533 533 972 972 972 972 972 972 972 972 972 768 768 768 768 768 768 977 977 977 977 977 977 977 977 396 396 396 396 396 396 239 239 239 239 239 161 161 161 161 556 556 556 556 556 983 841 841 841 841 841 841 841 841 833 833 833 652 652 652 652 652 652 652 652 652 961 961 575 575 575 575 575 575 575 59 59 59 59 59 34 34 34 254 254 254 254 254 533 533 533 533 533 533 533 533 533 533 533 533 533 972 972 972 972 972 972 972 972 972 972 768 768 768 768 768 61 977 977 977 977 428 428 428 428 396 396 396 396 396 396 396 239 239 239 161 161 161 161 161 556 556 556 556 556 841 841 841 841 841 841 841 841 841 940 940 833 652 652 652 652 652 652 652 652 652 961 961 961 575 575 575 575 575 59 59 59 59 59 59 34 34 34 34 254 254 254 254 533 533 533 533 533 533 533 533 533 533 533 533 533 972 972 972 972 972 972 972 972 972 972 972 61 61 61 61 61 61 977 977 428 428 428 428 428 396 396 396 396 396 396 396 396 161 161 161 161 161 161 161 161 556 556 556 841 841 841 841 841 841 841 841 841 841 940 940 940 652 652 652 652 652 652 652 652 652 961 961 961 961 961 575 575 59 59 59 59 59 59 59 34 34 34 34 389 389 389 280 280 280 280 533 533 533 533 533 533 533 533 533 533 972 972 972 972 972 972 972 972 972 972 61 61 61 61 61 61 61 61 428 428 428 428 428 428 396 396 396 396 396 396 396 396 161 161 161 161 161 161 161 161 556 556 841 841 841 841 841 841 841 841 841 841 841 940 940 940 940 652 652 652 652 652 652 652 652 961 961 961 961 961 961 59 59 59 59 59 59 59 59 59 34 34 389 389 389 389 389 280 280 280 280 280 280 533 533 533 533 533 812 812 812 972 972 972 972 972 972 972 61 61 61 61 61 61 61 61 61 162 162 428 428 428 428 428 396 396 396 396 396 396 396 161 161 161 161 161 161 161 161 161 161 133 133 841 841 841 841 841 841 841 841 841 841 940 940 940 940 241 241 241 652 652 652 652 961 961 961 961 961 961 961 59 59 59 59 59 59 59 59 59 59 389 389 389 389 389 389 389 280 280 280 280 280 280 533 533 533 812 812 812 812 972 972 972 972 972 972 61 61 61 61 61 61 61 61 61 61 162 162 162 428 428 689 689 689 396 396 396 396 396 396 161 161 161 161 161 161 161 161 161 251 251 133 133 841 841 841 841 841 841 841 841 841 940 940 940 241 241 241 241 241 652 652 961 961 961 961 961 961 961 961 59 59 59 59 59 59 59 59 59 389 389 389 389 389 389 389 389 280 280 280 280 280 280 680 680 680 812 812 812 812 812 972 972 972 840 61 61 61 61 61 61 61 61 61 61 61 162 162 162 689 689 689 689 689 689 396 396 396 718 718 718 161 161 161 161 161 161 161 161 251 251 133 133 133 841 841 841 841 841 841 841 841 1 1 1 1 31 31 31 31 31 961 961 961 961 961 961 961 961 645 59 59 59 59 59 59 59 59 59 389 389 389 389 389 389 389 389 389 280 280 280 280 680 680 680 680 680 812 812 812 812 353 840 840 840 61 61 61 61 61 61 61 61 61 61 61 162 162 162 162 689 689 689 689 689 689 718 718 718 718 718 718 161 161 161 161 161 161 251 251 251 133 133 133 133 841 841 841 841 841 841 1 1 1 1 1 31 31 31 31 31 31 961 961 961 961 961 961 645 645 645 59 59 59 59 59 59 59 389 389 389 389 389 389 389 389 389 389 896 896 896 680 680 680 680 680 680 680 812 812 353 353 353 840 840 61 61 61 61 61 61 61 61 61 61 61 162 162 162 162 689 689 689 689 689 718 718 718 718 718 718 718 718 161 161 161 161 161 251 251 251 133 133 133 133 841 841 841 841 841 1 1 1 1 1 1 1 31 31 31 31 132 132 132 132 961 961 645 645 645 645 645 59 59 59 59 59 59 389 389 389 389 389 389 389 389 389 896 896 896 896 896 680 680 680 680 680 680 680 353 353 353 353 840 840 61 61 61 61 61 61 61 61 61 61 61 162 162 162 162 162 162 689 689 718 718 718 718 718 718 718 718 718 718 161 161 161 161 251 251 251 133 133 133 133 841 841 841 1 1 1 1 1 1 1 1 1 31 31 31 132 132 132 132 132 132 645 645 645 645 645 645 59 59 59 59 59 59 389 389 389 389 389 389 389 896 896 896 896 896 896 896 680 680 680 680 680 680 870 353 353 353 353 353 141 61 61 61 61 61 61 61 61 61 61 61 162 162 162 162 162 162 162 162 718 718 718 718 718 718 718 718 718 718 718 161 161 441 441 251 483 483 483 483 483 841 841 1 1 1 1 1 1 1 1 1 1 31 31 31 132 132 132 132 132 132 645 645 645 645 645 645 645 59 59 59 401 401 389 389 389 389 389 389 896 896 896 896 896 896 896 896 896 680 680 680 870 870 870 870 353 353 353 141 141 141 61 61 61 61 61 61 61 61 61 162 162 162 162 162 162 162 162 162 718 718 718 718 718 718 718 718 718 718 718 718 441 441 441 441 483 483 483 483 483 483 1 1 1 1 1 1 1 1 1 1 1 1 227 227 132 132 132 132 132 132 132 645 645 645 645 645 645 401 401 401 401 401 401 389 389 389 389 896 896 896 896 896 896 896 896 896 896 870 870 870 870 870 870 870 870 353 141 141 141 141 141 61 61 61 61 61 61 61 61 162 162 162 162 162 162 162 162 162 718 718 718 718 718 718 718 718 718 718 718 718 441 441 441 441 483 483 483 483 483 483 1 1 1 1 1 1 1 1 1 1 1 1 227 227 227 132 132 132 132 132 733 645 645 645 645 645 645 401 401 401 401 401 401 401 389 389 896 896 896 896 896 896 896 896 896 896 94 870 870 870 870 870 870 870 870 321 141 141 141 141 633 633 366 366 366 366 366 366 366 162 162 162 162 162 162 162 162 162 718 718 718 718 718 718 718 718 718 718 718 718 441 441 441 441 483 483 483 483 483 483 1 1 1 1 1 1 1 1 1 1 1 1 227 227 227 227 132 132 132 733 733 733 645 645 645 54 54 401 401 401 401 401 401 401 896 896 896 896 896 896 896 896 896 896 896 896 94 870 870 870 870 870 870 870 870 321 141 141 633 633 633 633 366 366 366 366 366 366 366 162 162 162 162 162 162 162 162 660 660 718 718 718 718 718 718 718 718 718 718 718 441 441 441 441 483 483 483 483 346 346 1 1 1 1 1 1 1 1 1 1 1 1 227 227 227 227 227 132 733 733 733 733 733 54 54 54 54 54 401 401 401 401 401 401 896 896 896 896 896 896 896 896 896 896 896 94 94 94 870 870 870 870 870 870 870 141 141 141 633 633 633 633 633 366 366 366 366 366 366 10 10 162 162 162 162 162 660 660 660 660 718 718 718 718 718 718 718 718 718 806 806 806 441 441 346 346 346 346 346 346 346 1 1 1 1 1 1 1 1 1 1 1 227 227 227 227 227 922 733 733 733 605 605 54 54 54 54 54 401 401 401 401 324 324 324 896 896 896 896 896 896 896 896 896 94 94 94 94 870 870 870 870 870 870 617 617 633 633 633 633 633 633 633 366 366 366 366 366 10 10 10 10 92 92 92 92 660 660 660 660 660 718 718 718 718 718 718 806 806 806 806 806 806 346 346 346 346 346 346 346 346 346 1 1 1 1 1 1 1 1 1 1 227 227 227 227 922 922 922 733 605 605 605 605 54 54 54 54 54 324 324 324 324 324 324 324 896 896 896 896 896 896 896 94 94 94 94 94 94 870 870 870 870 617 617 617 633 633 633 633 633 633 633 633 366 366 366 10 10 10 10 92 92 92 92 92 660 660 660 660 58 58 718 718 718 806 806 806 806 806 806 806 806 346 346 346 346 346 346 346 346 346 346 1 1 1 1 1 1 1 1 1 227 227 227 922 922 922 922 605 605 605 605 605 605 54 54 536 536 324 324 324 324 324 324 324 324 896 896 896 896 896 896 94 94 94 94 94 94 94 870 870 617 617 617 617 617 633 633 633 633 633 633 633 633 366 366 10 10 10 10 92 92 92 92 92 660 660 660 58 58 58 58 806 806 806 806 806 806 806 806 806 806 346 346 346 346 346 346 346 346 346 346 346 1 1 1 1 1 1 1 1 227 227 227 922 922 922 922 605 605 605 605 605 605 605 536 536 324 324 324 324 324 324 324 324 324 896 896 896 896 896 94 94 94 94 94 94 94 94 94 617 617 617 617 617 617 633 633 633 633 633 633 633 633 633 10 10 10 10 92 92 92 92 92 92 92 660 58 58 58 58 58 806 806 806 806 806 806 806 806 806 806 346 346 346 346 346 346 346 346 346 346 346 346 679 679 679 679 679 679 869 869 869 860 860 922 922 922 605 605 605 605 605 605 605 605 324 324 324 324 324 324 324 324 324 324 324 896 896 896 896 94 94 94 94 94 94 94 731 731 731 617 617 617 617 633 633 633 633 633 633 633 633 633 438 438 438 10 10 92 92 92 92 92 92 92 58 58 58 58 58 58 806 806 806 806 806 806 806 806 806 806 683 346 346 346 346 346 346 346 346 346 346 346 679 679 679 679 679 679 869 869 869 860 860 860 922 922 605 605 605 605 605 605 605 605 324 324 324 324 324 324 324 324 324 324 324 891 891 891 891 94 94 94 94 94 94 731 731 731 731 731 617 617 617 633 633 633 633 633 633 633 633 438 438 438 438 438 438 92 92 92 92 92 92 92 58 58 58 58 196 196 196 806 806 806 806 806 806 806 806 683 683 683 346 346 346 346 346 346 346 346 346 346 679 679 679 679 679 679 869 869 869 860 860 860 860 922 605 605 605 605 605 605 605 324 324 324 324 324 324 324 324 324 324 324 324 891 891 891 891 891 94 94 94 94 731 731 731 731 731 731 731 617 633 633 633 633 633 633 633 633 438 438 438 438 438 438 438 774 686 686 686 686 686 686 934 934 196 196 196 196 196 498 498 498 498 498 498 498 683 683 683 683 346 346 346 346 346 346 346 346 346 679 679 679 679 679 679 679 869 869 869 869 860 860 860 380 380 605 605 605 605 605 605 324 324 324 324 324 324 324 324 324 324 324 324 891 891 891 891 891 891 94 731 731 731 731 731 731 731 731 731 731 633 633 633 761 761 761 761 438 438 438 438 438 438 438 438 686 686 686 686 686 686 686 934 934 934 196 196 196 196 498 498 498 498 498 498 498 498 683 683 683 683 346 346 346 346 346 346 346 346 679 679 679 679 679 679 679 869 869 869 869 860 860 380 380 380 380 380 605 605 605 605 324 324 324 324 324 324 324 324 324 324 324 324 891 891 891 891 891 891 731 731 731 731 731 731 731 731 731 731 731 761 761 761 761 761 761 761 761 438 438 438 438 438 438 438 686 686 686 686 686 686 934 934 934 934 196 196 196 196 498 498 498 498 498 498 498 498 683 683 683 801 801 801 346 346 346 346 346 679 679 679 679 679 679 679 679 179 869 869 869 860 380 380 380 380 380 380 380 380 380 380 324 324 324 324 324 324 324 324 324 324 324 891 891 891 891 891 891 891 731 731 731 731 731 731 731 731 731 731 731 761 761 761 761 761 761 761 761 438 438 438 438 438 438 208 208 686 686 686 686 686 934 934 934 241 241 942 942 942 942 498 498 498 498 498 498 498 498 801 801 801 801 801 801 801 801 801 801 679 679 679 679 679 679 679 179 179 869 869 869 380 380 380 380 380 380 380 380 380 380 380 380 324 324 324 324 324 324 324 324 324 324 891 891 891 891 891 891 731 731 731 731 731 731 731 731 731 731 731 731 761 761 761 761 761 761 761 761 438 438 438 438 438 208 208 208 686 686 686 686 934 934 241 241 241 241 942 942 942 942 942 498 498 498 498 498 498 801 801 801 801 801 801 801 801 801 801 801 322 679 679 679 679 679 679 828 828 869 869 380 380 380 380 380 380 380 380 380 380 380 380 252 324 324 324 324 324 324 324 324 720 720 720 720 720 720 891 891 731 731 731 731 731 731 731 731 731 731 731 731 761 761 761 761 761 761 761 761 761 438 438 438 208 208 208 208 208 686 686 934 934 241 241 241 241 241 942 942 942 942 942 498 498 498 498 498 801 801 801 801 801 801 801 801 801 801 801 801 322 322 679 679 679 828 828 828 828 660 660 380 380 380 380 380 380 380 380 380 380 380 380 252 252 324 324 324 324 324 720 720 720 720 720 720 720 720 720 720 731 731 731 731 731 731 731 731 731 731 731 731 761 761 761 761 761 761 761 761 761 761 438 208 208 208 208 208 208 491 491 491 241 241 241 241 241 241 942 942 942 942 942 942 498 498 498 801 801 801 801 801 801 801 801 801 801 801 801 801 801 322 322 679 828 828 828 828 828 660 660 380 380 380 380 380 380 380 380 380 380 380 380 508 508 508 324 324 324 720 720 720 720 720 720 720 720 720 720 720 731 731 731 731 731 731 731 731 731 731 731 731 761 761 761 761 761 761 761 761 761 761 98 208 208 208 208 208 491 491 491 491 241 241 241 241 241 241 942 942 942 942 942 942 800 800 800 801 801 801 801 801 801 801 801 801 801 801 801 801 801 322 868 868 828 828 828 828 660 660 660 380 380 380 380 380 380 380 380 380 380 380 380 508 508 508 508 324 720 720 720 720 720 720 720 720 720 720 720 720 731 731 731 731 731 731 731 731 731 731 731 731 761 761 761 761 761 761 761 761 761 98 98 98 208 208 208 491 491 491 491 491 156 241 241 241 241 241 942 942 942 942 942 800 800 800 800 801 801 801 801 801 801 801 801 801 801 801 801 801 801 868 868 868 868 828 828 828 660 603 603 603 380 380 380 380 380 380 54 54 54 54 54 508 508 508 508 794 720 720 720 720 720 720 720 720 720 720 720 720 731 731 731 731 731 731 731 731 731 731 731 731 903 761 761 903 903 761 761 761 190 190 98 98 98 491 491 491 491 491 491 491 156 156 156 156 241 241 942 942 942 800 800 800 800 800 800 800 801 801 801 801 801 801 801 801 801 801 801 801 868 868 868 868 868 868 868 603 603 603 603 603 603 380 380 380 54 54 54 54 54 54 54 508 508 508 508 794 491 720 720 720 720 720 720 720 720 720 75 75 75 731 731 731 731 731 731 731 731 731 731 903 903 903 903 903 903 903 903 903 190 190 190 190 190 491 491 491 491 491 491 156 156 156 156 156 156 241 217 217 800 800 800 800 800 800 800 800 800 801 801 801 801 801 801 801 801 801 801 801 868 868 868 868 868 868 868 603 603 603 603 603 603 603 54 54 54 54 54 54 54 54 54 508 508 508 794 491 491 491 720 720 720 720 720 720 75 75 75 75 75 75 731 731 731 731 731 731 731 731 903 903 903 903 903 903 903 903 903 903 190 190 190 190 190 491 491 491 491 491 156 156 156 156 856 856 856 217 217 217 217 800 800 800 800 800 800 800 800 801 801 801 801 801 801 801 801 801 801 868 868 868 868 868 868 868 868 868 603 603 603 603 603 603 547 54 54 54 54 54 54 54 54 54 508 508 491 491 491 491 491 491 720 720 75 75 75 75 75 75 75 75 75 731 731 731 731 731 731 903 903 903 903 903 903 903 903 903 903 903 190 190 190 460 460 460 491 491 491 156 156 156 156 856 856 856 856 217 217 217 217 800 800 800 800 800 800 800 800 801 801 801 801 801 801 801 801 801 868 868 868 868 868 868 868 868 868 868 603 603 603 603 603 547 547 547 54 54 54 54 54 54 54 923 923 923 491 491 491 491 491 491 491 75 75 75 75 75 75 75 75 75 75 141 141 141 141 141 141 903 903 903 903 903 903 903 903 903 903 903 190 190 460 460 460 460 460 491 156 156 156 156 156 856 856 856 856 217 217 217 217 800 800 800 800 800 800 800 800 801 801 801 801 801 801 801 801 868 868 868 868 868 868 868 868 868 868 868 603 603 603 603 603 547 547 547 547 54 54 54 54 54 923 923 923 923 491 491 491 491 491 491 491 75 75 75 75 75 75 75 75 75 141 141 141 141 141 141 141 903 903 903 903 903 903 903 903 903 903 903 843 843 843 460 460 460 460 699 699 156 156 156 856 856 856 856 856 217 217 217 217 800 800 800 800 800 800 800 800 800 801 801 801 801 801 801 801 868 868 868 868 868 868 868 868 868 868 868 603 603 603 104 104 547 547 547 547 547 54 54 54 923 923 923 923 923 923 491 491 491 491 491 491 75 75 75 75 75 75 75 75 75 141 141 141 141 141 141 141 141 903 903 903 903 903 903 903 903 903 843 843 843 843 843 460 460 699 699 699 699 699 156 856 856 856 856 217 217 217 217 217 800 800 800 800 800 800 800 800 800 385 801 801 801 801 801 868 868 868 868 868 868 868 868 868 868 868 868 104 104 104 104 104 104 547 547 547 547 547 54 923 923 923 923 923 923 923 834 834 834 834 834 491 75 75 75 75 75 75 75 75 141 141 141 141 141 141 141 141 141 103 903 903 903 903 903 903 903 903 843 843 843 843 843 843 699 699 699 699 699 699 699 978 978 978 978 217 217 217 217 217 800 800 800 800 800 800 800 800 385 385 385 801 801 801 868 868 868 868 868 868 868 868 868 868 868 868 707 104 104 104 104 104 104 104 547 547 547 93 93 923 923 923 923 923 923 834 834 834 834 834 834 834 75 75 75 75 75 75 75 75 141 141 141 141 141 141 141 141 103 103 103 903 903 903 903 903 903 843 843 843 843 843 843 843 699 699 699 699 699 699 699 978 978 978 978 978 217 217 217 836 800 800 800 800 800 800 800 385 385 385 385 385 385 385 868 868 868 868 868 868 868 868 868 868 868 868 829 104 104 104 104 104 104 104 104 93 93 93 93 93 923 923 923 923 834 834 834 834 834 834 834 834 834 219 219 219 219 75 75 75 141 141 141 141 141 141 141 103 103 103 103 103 103 903 117 117 117 117 474 474 474 474 474 474 699 699 699 699 699 699 699 978 978 978 978 978 978 836 836 836 836 800 800 800 800 800 800 385 385 385 385 385 385 385 868 868 868 868 868 868 868 868 868 868 829 829 829 829 104 104 104 104 104 104 104 93 93 93 93 93 93 923 834 834 834 834 834 834 834 834 834 834 834 219 219 219 219 219 219 263 141 141 141 141 141 141 103 103 103 103 103 103 103 103 489 117 117 117 474 474 474 474 474 474 474 699 699 699 699 699 699 978 978 978 978 978 836 836 836 836 836 836 708 708 708 708 708 385 385 385 385 385 385 385 623 623 868 868 868 868 868 868 868 829 829 829 829 829 829 104 104 104 104 104 104 93 93 93 93 93 93 834 834 834 834 834 834 834 834 834 834 834 834 219 219 219 219 219 263 263 263 141 141 141 141 141 103 103 103 103 103 103 103 489 489 117 117 117 117 474 474 474 474 474 474 140 699 699 699 699 699 978 978 978 978 978 836 836 836 836 836 836 708 708 708 708 708 708 385 249 249 385 385 623 623 623 623 623 868 868 868 868 829 829 829 829 829 829 829 829 104 104 104 104 562 562 93 93 93 93 93 834 834 834 834 834 834 834 834 834 834 834 834 219 219 219 219 219 263 263 263 328 328 141 141 103 103 103 103 103 103 103 489 489 489 117 117 117 117 474 474 474 474 474 474 140 140 699 699 699 699 181 181 181 181 181 836 836 836 836 836 708 708 708 708 708 708 708 708 249 249 249 623 623 623 623 623 623 623 623 868 829 829 829 829 829 829 829 829 829 829 104 104 562 562 562 562 562 93 93 834 834 834 834 834 834 834 834 834 834 834 834 834 219 219 219 219 219 263 263 263 328 328 328 667 667 103 103 103 103 103 489 489 489 489 117 117 117 117 474 474 474 474 474 474 77 77 77 699 699 181 181 181 181 181 181 836 836 836 836 708 708 708 708 708 708 708 708 708 249 249 623 623 623 623 623 623 623 623 623 332 829 829 829 829 829 829 829 829 829 829 562 562 562 562 562 562 562 562 562 834 834 834 834 834 834 834 834 834 834 834 834 834 219 219 219 219 219 263 263 328 328 328 667 667 667 667 103 103 103 489 489 489 489 489 117 117 117 117 117 474 474 474 158 158 77 77 77 77 181 181 181 181 181 181 181 836 836 836 708 708 708 708 708 708 708 708 708 708 5 5 5 623 623 623 623 623 623 623 623 623 829 829 829 829 829 829 829 829 829 829 562 562 562 562 562 562 562 562 562 834 834 834 834 834 834 834 834 834 834 834 834 834 834 219 219 219 219 328 328 328 328 667 667 667 667 667 667 103 489 489 489 489 489 489 489 117 117 117 117 117 158 158 158 158 158 77 77 428 181 181 181 181 181 181 181 836 836 708 708 708 708 708 708 708 708 708 708 5 5 5 5 623 623 623 623 623 623 623 623 623 829 829 829 829 829 829 829 829 829 829 562 562 562 562 562 562 562 562 619 834 834 834 834 834 834 834 834 834 834 834 834 834 834 51 51 51 51 51 328 328 667 667 667 667 667 667 667 667 489 489 489 489 489 489 489 117 117 117 117 158 158 158 158 158 158 158 428 428 428 181 181 181 181 181 181 836 836 708 708 708 708 708 708 708 708 708 5 5 5 5 5 5 623 623 623 623 623 623 623 623 829 829 829 829 829 829 829 829 829 829 562 562 562 562 562 619 619 619 619 834 834 834 834 834 834 834 834 834 83