<?xml version="1.0"?>
<VTKFile type="ImageData" version="0.1" byte_order="LittleEndian">
<ImageData WholeExtent="0 100 0 100 0 100" Origin="0 0 0" Spacing="1 1 1">
<Piece Extent="0 100 0 100 0 100">
<PointData>
</PointData>
<CellData Scalars="Spin">
<DataArray type="Int32" Name="Spin" format="ascii" RangeMin="0" RangeMax="10000">
654 361 361 361 361 361 361 361 361 361 513 513 513 513 513 513 513 513 845 845 845 845 845 845 845 897 897 897 897 897 897 334 394 394 394 394 161 161 502 502 973 973 973 973 973 537 537 537 537 537 865 865 865 127 127 127 127 127 127 450 450 450 216 216 216 216 216 216 216 216 216 216 381 381 381 381 381 381 381 381 381 381 381 696 696 696 696 411 411 411 177 177 683 683 683 683 683 683 683 683 683 361 361 361 361 361 361 361 361 513 513 513 513 513 513 513 513 513 845 845 845 845 845 845 845 897 897 897 897 897 897 897 334 394 161 161 161 161 161 161 973 973 973 973 973 973 734 734 734 143 143 143 865 127 127 127 127 127 450 450 450 450 450 216 216 216 216 216 216 216 216 381 381 381 381 381 381 381 381 381 381 381 696 696 696 696 696 696 696 177 177 177 683 683 683 683 683 683 683 683 683 361 361 361 361 361 361 361 361 513 513 513 513 513 513 513 513 513 513 845 845 845 845 845 897 897 897 897 897 897 897 334 334 161 161 161 161 161 161 161 973 973 973 973 973 973 973 734 143 143 143 143 143 143 127 127 127 450 450 450 450 450 450 450 216 216 216 216 216 216 381 381 381 381 381 381 381 381 381 381 381 381 696 696 696 696 696 696 696 177 177 177 683 683 683 683 683 683 683 683 482 361 361 361 361 361 361 361 513 513 513 513 513 513 513 513 513 513 513 797 845 845 845 712 712 897 897 897 897 897 897 334 334 161 161 161 161 161 161 161 786 786 786 973 973 973 973 143 143 143 143 143 143 143 143 153 153 450 450 450 450 450 450 450 450 391 391 391 391 391 381 381 381 381 381 381 381 381 381 381 381 381 696 696 696 696 696 696 696 230 230 230 230 230 683 683 683 683 683 683 482 482 361 361 361 361 361 513 513 513 513 513 513 513 513 513 513 513 797 797 797 797 797 712 712 712 897 897 897 897 118 118 118 118 161 161 161 161 161 339 339 786 786 786 786 786 143 143 143 143 143 143 143 143 153 153 153 153 450 450 450 450 450 450 391 391 391 391 391 391 391 381 381 381 381 381 381 381 381 381 381 696 696 696 696 696 696 696 696 230 230 230 230 230 683 683 683 683 683 482 194 194 194 194 194 194 194 513 513 513 513 513 513 513 513 513 513 797 797 797 797 797 797 712 712 712 161 161 161 161 118 118 118 118 118 161 161 161 339 339 339 339 786 786 786 786 143 143 143 143 143 143 143 143 143 153 153 153 450 450 450 450 450 450 391 391 391 391 391 391 391 391 381 381 381 381 381 381 381 381 696 696 696 696 696 696 696 696 230 230 230 230 230 230 230 230 683 683 482 482 194 194 194 194 194 194 194 194 513 513 513 513 513 513 513 513 797 797 797 797 797 797 797 361 712 161 161 161 161 161 161 118 118 118 118 695 339 339 339 339 339 339 786 786 786 786 143 143 143 143 143 143 143 143 143 153 153 153 153 450 450 450 450 450 391 391 391 391 391 391 391 391 381 381 381 381 381 381 381 381 696 696 696 696 696 696 696 696 230 230 230 230 230 230 230 230 914 914 194 194 194 194 194 194 194 194 194 194 194 513 513 513 513 513 513 513 797 797 797 797 797 797 797 715 715 161 161 161 161 161 161 161 118 118 695 695 339 339 339 339 339 339 786 786 786 143 143 143 143 143 143 143 143 143 143 143 153 919 919 919 980 980 450 391 391 391 391 391 391 391 391 391 391 381 381 381 381 381 381 696 696 696 696 696 696 696 696 230 230 230 230 230 230 230 230 230 252 914 194 194 194 194 194 194 194 194 194 194 194 60 60 60 60 60 60 60 797 797 797 797 797 797 715 715 715 161 161 161 161 161 161 161 695 695 695 695 339 339 339 339 339 339 786 786 786 143 143 143 143 143 143 143 143 143 143 143 919 919 919 919 919 980 980 391 391 391 391 391 391 391 391 391 391 381 381 381 381 381 381 696 696 696 696 696 696 696 230 230 230 230 230 230 230 230 230 252 252 252 252 194 194 194 194 194 194 194 194 194 194 60 60 60 60 60 60 60 60 797 797 797 747 747 715 715 715 715 161 161 161 161 161 161 695 695 695 695 536 339 339 339 339 339 786 786 786 143 143 143 143 143 143 143 143 143 143 143 919 919 919 919 919 919 980 980 391 391 391 391 391 391 391 391 887 887 887 887 479 479 479 810 810 696 696 696 696 230 230 230 230 230 230 230 230 230 252 252 252 252 252 194 194 194 194 194 194 194 194 194 194 60 60 60 60 60 60 60 60 60 747 747 747 747 715 715 715 715 715 161 161 161 161 224 224 695 695 536 536 536 339 339 339 339 64 64 64 143 143 143 143 143 143 143 143 143 143 919 919 919 919 919 919 919 980 980 134 134 134 391 391 391 391 887 887 887 887 887 479 479 479 810 810 810 810 810 810 230 230 230 230 230 230 230 230 252 252 252 252 252 252 252 252 194 194 194 194 194 194 194 60 60 60 60 60 60 60 60 60 60 747 747 747 747 715 715 715 715 715 715 161 161 224 224 224 224 224 536 536 536 536 339 464 464 64 64 64 143 143 143 143 143 305 305 305 305 305 305 919 919 919 919 919 919 919 134 134 134 134 134 134 134 134 887 887 887 887 887 887 479 479 810 810 810 810 810 810 810 230 230 230 230 230 252 252 252 252 252 252 252 252 252 252 252 194 194 194 194 194 194 60 60 60 60 60 60 60 60 60 60 60 747 747 747 715 715 715 715 715 715 715 224 224 224 224 224 224 224 536 536 536 464 464 464 464 64 64 305 305 305 305 305 305 305 305 305 305 305 305 919 919 919 919 919 919 134 134 134 134 134 134 134 134 887 887 887 887 887 479 479 479 479 810 810 810 810 810 810 230 230 230 230 252 252 252 252 252 252 252 252 252 252 252 252 194 194 194 194 194 60 60 60 60 60 60 60 60 60 60 60 60 302 302 302 715 715 715 715 715 715 715 224 224 224 224 224 224 224 431 431 431 464 464 464 464 305 305 305 305 305 305 305 305 305 305 305 305 305 305 305 919 919 919 919 919 134 134 134 134 134 134 134 134 134 887 887 887 887 887 479 479 479 609 609 609 810 810 401 401 401 401 252 252 252 252 252 252 252 252 252 252 252 252 252 252 194 194 194 60 60 60 60 60 60 60 60 60 60 60 60 302 302 302 302 302 715 715 261 261 261 261 224 224 224 224 224 224 224 431 431 431 150 150 150 150 305 305 305 305 305 305 305 305 305 305 305 305 305 305 305 305 919 919 919 919 134 134 134 134 134 134 134 134 134 887 887 887 186 186 479 609 609 609 609 609 609 609 401 401 401 401 252 252 252 252 252 252 252 252 252 252 252 252 252 252 252 408 60 60 60 60 60 60 60 60 60 374 374 374 540 302 302 302 302 302 302 261 261 261 261 261 261 224 224 224 224 224 224 431 431 150 150 150 150 150 150 305 305 305 305 305 305 305 305 305 305 305 305 305 305 305 305 838 838 838 134 134 134 134 547 547 547 547 547 547 186 186 186 186 186 609 609 609 609 609 609 609 609 366 366 366 366 252 252 252 252 252 252 252 252 252 252 252 252 252 408 408 408 60 60 60 60 60 374 374 374 374 374 374 540 540 540 540 540 540 261 261 261 261 261 261 261 224 224 224 224 224 224 224 150 150 150 150 150 150 150 305 305 305 305 305 305 305 305 305 305 305 305 305 305 305 838 838 838 838 838 547 547 547 547 547 547 547 547 547 186 186 186 186 186 609 609 609 609 609 609 609 609 366 366 366 366 366 252 252 252 252 252 252 252 252 252 252 252 408 408 408 408 270 270 270 270 374 374 374 374 374 374 374 540 540 540 540 540 540 540 261 261 261 261 261 261 224 224 224 224 224 224 150 150 150 150 150 150 150 150 150 305 305 305 305 305 305 305 305 305 305 305 305 305 305 838 838 838 838 838 547 547 547 547 547 547 547 547 547 186 186 186 186 186 609 609 609 609 609 609 609 609 366 366 366 366 366 366 252 252 252 252 252 252 252 252 612 612 612 612 612 612 270 270 270 270 374 374 374 374 374 374 374 540 540 540 540 540 540 540 261 261 261 261 261 261 224 224 224 224 224 224 150 150 150 150 150 150 150 150 150 305 305 305 305 305 305 305 305 305 305 305 305 305 305 838 838 838 838 838 547 547 547 547 547 547 547 547 547 186 186 186 186 186 186 609 609 609 609 609 609 366 366 366 366 366 366 366 366 252 252 252 252 252 252 252 612 612 612 612 612 612 270 270 270 270 374 374 374 374 374 374 860 860 540 540 540 540 540 540 261 261 261 261 261 261 224 224 224 224 224 150 150 150 150 150 150 150 150 150 150 150 305 305 305 305 305 305 305 305 305 305 305 305 838 838 838 838 838 838 547 547 547 547 547 547 547 547 547 186 186 186 186 186 186 609 609 609 609 609 609 366 366 366 366 366 366 366 366 366 252 252 252 252 252 612 612 612 612 612 612 612 270 270 270 270 374 374 374 374 374 860 860 860 860 860 860 540 540 518 887 887 887 887 887 887 572 572 572 572 572 150 150 150 150 150 150 150 150 150 150 150 305 305 305 305 305 305 305 305 305 305 683 683 683 683 838 838 838 547 547 547 547 547 547 547 547 547 547 186 186 186 186 186 186 609 609 609 609 609 366 366 366 366 366 366 366 366 366 366 366 252 252 612 612 612 612 612 612 612 612 612 270 270 270 818 818 818 818 818 860 860 860 860 860 860 860 380 380 518 887 887 887 887 887 887 572 572 572 572 572 572 150 150 150 150 150 150 150 150 150 150 305 305 305 305 305 305 305 305 683 683 683 683 683 683 683 838 838 547 547 547 547 547 547 547 547 547 547 186 186 186 186 186 186 186 609 609 609 366 366 366 366 366 366 366 366 366 366 366 366 366 612 612 612 612 612 612 612 612 612 724 724 724 818 818 818 818 818 818 860 860 860 860 860 860 380 380 380 380 380 529 529 529 529 529 529 572 572 572 572 572 152 152 152 150 150 150 150 150 150 150 971 305 305 305 683 683 683 683 683 683 683 683 683 683 683 683 838 547 547 547 547 547 547 547 547 547 547 186 186 186 186 186 186 186 186 609 609 366 366 366 366 366 366 366 366 366 366 366 366 366 612 612 612 612 612 612 612 612 612 724 724 724 818 818 818 818 818 818 860 860 860 860 860 380 380 380 380 380 380 529 529 529 529 529 529 529 572 888 888 152 152 152 152 152 152 150 150 150 150 150 683 683 683 683 683 683 683 683 683 683 683 683 683 683 683 683 683 547 547 547 547 547 547 547 547 547 547 186 186 186 186 186 186 186 186 366 366 366 366 366 366 366 366 366 366 366 366 366 366 612 612 612 612 612 612 612 612 612 724 724 724 818 818 818 818 818 818 818 818 860 860 860 860 380 380 380 380 380 380 529 529 529 529 529 529 529 888 888 152 152 152 152 152 152 152 152 726 726 726 683 683 683 683 683 683 683 683 683 683 683 683 683 683 683 683 683 683 547 547 547 547 547 547 547 547 547 547 786 786 186 186 186 186 186 536 536 366 366 366 366 366 366 366 366 366 366 366 366 366 612 612 612 612 612 612 612 612 724 724 724 724 818 818 818 818 818 818 818 818 818 860 860 380 380 380 380 380 380 380 529 529 529 529 529 529 529 888 888 888 152 152 152 152 152 152 726 726 726 726 52 683 683 683 683 683 683 683 683 683 683 683 683 683 683 683 683 683 547 547 547 547 547 547 547 547 547 786 786 786 786 786 186 186 536 536 536 536 366 366 366 366 366 366 366 366 366 366 366 366 612 612 612 612 612 176 612 612 724 724 724 724 818 818 818 818 818 818 818 818 818 818 860 380 380 380 380 380 380 380 529 529 529 529 529 529 529 888 768 768 768 768 152 152 152 726 726 726 726 726 52 52 683 683 683 683 683 683 683 683 683 683 683 683 683 683 683 683 683 547 547 547 547 547 547 547 547 786 786 786 786 786 786 536 536 536 536 536 536 366 366 366 366 366 366 366 366 366 366 176 176 176 176 176 176 176 176 176 354 354 724 724 818 818 818 818 818 818 818 818 818 818 860 380 380 380 380 380 380 380 529 529 529 529 529 529 529 768 768 768 768 768 768 768 726 726 726 726 726 726 52 52 683 683 683 683 683 683 683 683 683 683 683 683 683 683 683 683 683 547 547 547 499 499 499 499 499 786 786 786 786 786 786 536 536 536 536 536 536 536 366 366 366 139 139 139 139 139 139 176 176 176 176 176 176 176 176 176 354 354 694 694 694 818 818 818 818 818 818 818 659 659 659 380 380 380 533 533 533 533 529 529 529 529 529 529 768 768 768 768 768 768 768 768 768 726 726 726 726 52 52 52 52 683 683 683 683 683 683 683 683 683 683 683 683 683 683 683 683 683 499 499 499 499 499 499 499 499 786 786 786 999 999 999 536 536 536 536 536 536 6 139 139 139 139 139 139 139 139 176 176 176 176 176 176 176 176 176 354 694 694 694 694 694 694 818 818 818 659 659 659 659 659 659 429 533 533 533 533 533 533 533 529 529 529 72 768 768 768 768 768 768 768 768 768 768 726 726 726 52 52 52 52 52 683 683 683 683 683 683 683 683 683 683 683 683 683 683 683 232 499 499 499 499 499 499 499 499 499 499 999 999 999 999 999 536 536 536 536 536 139 139 139 139 139 139 139 139 139 176 176 176 176 176 176 176 176 176 694 694 694 694 694 694 694 694 818 659 659 659 659 659 659 659 429 533 533 533 533 533 533 533 533 72 72 72 768 768 768 768 768 768 768 768 768 768 768 726 229 229 229 229 52 52 466 683 683 683 683 683 683 683 683 683 683 683 683 683 232 232 232 499 499 499 499 499 499 499 499 499 999 999 999 999 999 999 536 536 536 139 139 139 139 139 139 139 139 139 139 176 176 176 176 176 176 176 176 926 926 694 694 694 694 694 694 694 659 659 659 659 659 659 659 659 533 533 533 533 533 533 533 533 533 533 72 72 768 768 768 768 768 768 768 768 768 768 768 229 229 229 229 229 229 466 466 466 466 466 683 683 683 683 683 683 683 683 683 232 232 232 232 499 499 499 499 499 499 499 499 999 999 999 999 999 999 999 999 541 541 139 139 139 139 139 139 139 139 139 139 176 176 176 176 176 176 926 926 926 926 926 694 694 694 694 694 659 659 659 659 659 659 659 659 659 533 533 533 533 533 533 533 533 533 533 72 72 768 768 768 768 768 768 768 768 768 768 768 229 229 229 229 229 229 466 466 466 466 466 466 466 683 683 683 683 683 683 985 985 232 232 232 232 499 499 499 499 499 499 499 999 999 999 999 999 999 999 541 541 541 541 139 139 139 139 139 139 139 139 139 139 176 176 176 176 176 926 926 926 926 926 926 694 694 694 659 659 659 659 659 659 659 659 659 659 659 533 533 533 533 533 533 533 533 533 533 72 768 768 768 768 768 768 768 768 768 768 229 229 229 229 229 229 229 466 466 466 466 466 466 466 466 466 683 683 985 985 985 985 985 232 232 232 499 499 499 499 499 499 499 999 999 999 999 999 999 541 541 541 541 541 139 139 139 139 139 139 139 139 139 287 287 176 176 176 926 926 926 926 926 926 926 926 694 694 659 659 659 659 659 659 659 659 659 659 659 533 533 533 533 533 533 533 533 533 533 533 768 768 768 768 768 768 768 768 768 229 229 229 229 229 229 229 466 466 466 466 466 466 466 466 466 466 466 985 985 985 985 985 985 985 985 232 499 499 499 499 499 499 499 999 999 999 999 999 999 541 541 541 541 541 139 139 139 139 139 139 139 139 287 287 287 771 926 926 926 926 926 926 926 926 926 926 926 926 659 659 659 659 659 659 659 659 659 659 659 533 533 533 533 533 533 533 533 533 533 533 533 768 768 768 768 768 63 63 63 63 48 48 48 48 229 229 540 466 466 466 466 466 466 466 466 466 789 789 985 985 985 985 985 985 985 659 659 659 659 659 659 659 659 999 999 999 999 999 999 541 541 541 541 541 139 139 139 139 139 139 139 771 771 771 771 771 926 926 926 926 926 926 926 926 926 926 926 926 361 659 659 659 659 659 659 659 659 659 659 533 533 533 533 533 533 533 533 533 533 533 939 939 939 63 63 63 63 63 63 63 183 48 48 139 540 139 540 540 540 466 466 466 466 466 466 789 789 789 985 985 985 985 985 985 659 659 659 659 659 659 659 659 659 659 999 999 999 999 541 541 541 541 541 179 179 139 139 139 139 139 771 771 771 771 771 771 771 926 926 926 926 926 926 926 926 926 926 926 361 659 659 659 659 659 659 659 659 659 659 533 533 533 533 533 533 533 533 533 533 533 939 939 939 63 63 63 63 183 183 183 183 183 183 540 540 540 540 540 540 540 466 466 466 466 789 789 789 789 985 985 985 985 985 985 659 659 659 659 659 659 659 659 659 659 659 999 999 999 541 541 541 541 179 179 179 179 139 139 139 771 771 771 771 771 771 771 771 771 926 926 926 926 926 926 926 926 926 926 361 361 659 659 659 659 659 659 659 659 659 533 533 533 533 533 533 533 257 257 257 257 310 310 310 310 63 63 183 183 183 183 183 183 540 540 540 540 540 540 540 540 540 540 540 540 789 789 789 789 985 985 985 985 985 659 659 659 659 659 659 659 659 659 659 659 659 659 158 158 158 541 541 179 179 179 179 179 179 825 771 771 771 771 771 771 771 771 771 771 926 926 926 926 926 926 926 926 926 926 361 361 361 659 659 659 659 659 659 659 763 763 533 533 533 533 533 257 257 257 257 257 310 310 310 310 310 183 183 183 183 183 44 44 540 540 540 540 540 540 540 540 540 540 540 540 789 995 995 995 995 995 995 995 995 659 659 659 659 659 659 659 659 659 659 659 659 158 158 158 158 158 158 179 179 179 179 179 179 179 771 771 771 771 771 771 771 771 771 771 926 926 926 926 926 926 926 926 926 926 361 361 361 659 659 659 659 659 659 763 763 763 501 501 501 501 257 257 257 257 257 310 310 310 310 310 310 310 183 183 183 44 44 44 44 540 540 540 540 540 540 540 540 540 540 540 995 995 995 995 995 995 995 995 995 995 659 659 659 659 659 659 659 659 659 659 659 158 158 158 158 158 158 158 179 179 179 179 179 179 771 771 771 771 771 771 771 771 771 771 926 997 926 926 926 926 926 926 926 361 361 361 361 659 659 659 659 659 763 763 763 763 501 501 501 501 257 257 257 257 257 310 310 310 310 310 310 310 183 183 44 44 44 44 44 540 540 540 540 540 540 540 540 540 540 995 995 995 995 995 995 995 995 995 995 995 995 659 659 659 659 659 659 659 659 659 659 158 158 158 158 158 158 158 179 179 179 179 179 179 771 771 771 771 771 771 771 771 771 771 997 997 997 997 926 926 926 926 398 398 361 938 938 938 659 659 763 763 763 763 763 501 501 501 501 501 501 257 257 257 310 310 310 310 310 310 310 310 310 44 44 44 44 44 44 44 540 540 540 540 540 540 540 540 540 995 995 995 995 995 995 995 995 995 995 995 995 659 659 659 659 659 659 659 659 659 158 158 158 158 158 158 158 158 179 179 179 179 179 179 179 771 771 771 771 771 771 771 771 997 997 997 997 997 997 997 926 398 398 398 398 938 938 218 218 218 218 763 763 763 501 501 501 501 501 501 501 501 257 257 310 310 310 310 310 310 310 310 310 44 44 44 44 44 44 44 44 540 540 540 540 540 540 540 540 995 995 995 995 995 995 995 995 995 995 995 995 995 659 659 659 659 659 659 659 659 158 158 158 158 158 158 158 158 179 179 179 179 179 179 179 771 771 771 771 771 771 771 997 997 997 997 997 997 997 997 997 398 398 398 398 198 198 218 218 218 218 218 763 501 501 501 501 501 501 501 501 501 501 257 310 310 310 310 310 310 310 310 310 44 44 44 44 44 44 44 44 44 540 540 540 540 540 540 995 995 995 995 995 995 995 995 995 995 995 995 995 995 659 659 659 659 659 659 659 153 153 158 158 158 158 158 158 158 179 179 179 179 179 179 179 771 771 771 771 771 771 997 997 997 997 997 997 997 997 997 997 398 398 398 198 198 198 218 218 218 218 218 218 501 501 501 501 501 501 501 501 501 501 501 310 310 310 310 310 310 310 310 310 44 44 44 44 44 44 44 44 44 44 540 540 540 540 540 995 995 995 995 995 995 995 995 995 995 995 995 995 995 995 659 659 659 659 153 153 153 153 153 153 158 158 158 158 158 158 179 179 179 179 179 179 771 771 771 771 384 997 997 997 997 997 997 997 997 997 997 997 398 398 198 198 198 198 218 218 218 218 218 218 501 501 501 501 501 501 501 501 501 501 501 598 310 310 310 310 310 310 310 476 44 44 44 44 44 44 44 44 44 44 541 163 163 163 163 995 995 995 995 995 995 995 995 995 995 995 995 995 995 421 421 659 659 153 153 153 153 153 153 153 153 153 158 158 158 158 158 179 179 179 983 179 983 983 384 384 384 384 997 997 997 997 997 997 997 997 997 997 198 198 198 198 198 198 218 218 218 218 218 218 218 501 501 501 501 501 501 501 501 501 598 598 598 310 310 310 310 618 618 618 618 44 44 44 44 44 44 44 44 44 163 163 163 163 163 163 995 995 995 995 995 995 995 995 995 995 995 995 421 421 421 421 153 153 153 153 153 153 153 153 153 153 153 153 158 158 158 341 341 983 983 983 983 983 384 384 384 384 384 997 997 997 116 997 997 997 997 198 198 198 198 198 198 198 198 218 218 218 218 218 218 501 501 501 501 501 501 501 501 598 598 598 598 598 310 310 618 618 618 618 618 618 44 44 44 44 44 44 44 163 163 163 163 163 163 163 163 995 995 995 995 995 995 995 995 995 995 995 421 421 421 153 153 153 153 153 153 153 153 153 153 153 153 153 153 158 341 341 341 983 983 983 983 983 384 384 384 384 384 384 116 116 116 129 129 129 129 198 198 198 198 198 198 198 198 218 218 218 218 218 218 501 501 501 501 501 501 501 501 598 598 598 598 598 598 618 618 618 618 618 618 618 626 626 626 626 626 541 163 163 163 163 163 163 163 163 163 163 995 995 995 995 995 995 995 995 995 421 421 421 421 153 153 153 153 153 153 153 153 153 153 153 153 153 153 153 341 341 341 983 983 983 983 983 384 384 384 384 384 116 116 116 116 129 129 129 129 198 198 198 198 198 198 198 198 198 218 218 218 218 218 272 501 501 501 501 501 501 501 598 598 598 598 598 618 618 618 618 618 618 618 618 626 626 626 626 626 163 163 163 163 163 163 163 163 163 163 163 713 713 713 995 995 995 995 995 421 421 421 421 153 153 153 153 153 153 153 153 153 153 153 153 153 153 153 153 341 341 341 983 983 983 983 983 384 384 384 384 384 116 116 116 116 129 129 129 129 198 198 198 198 198 198 198 198 198 218 218 218 218 272 272 272 501 501 501 501 501 501 598 598 598 598 598 618 618 618 618 618 618 618 618 626 626 626 626 626 163 163 163 163 163 163 163 163 163 163 713 713 713 713 713 713 995 995 995 421 421 421 421 153 153 153 153 153 153 153 153 153 153 153 153 153 153 153 153 341 341 341 983 983 983 983 983 384 384 384 384 116 116 116 116 116 129 129 129 129 129 198 198 198 198 198 198 198 198 198 218 218 272 272 272 272 272 501 501 501 501 777 777 777 777 598 618 618 618 618 618 618 618 618 618 626 626 626 626 626 163 163 163 163 163 163 163 163 163 163 713 713 713 713 713 713 713 995 995 421 421 421 421 153 153 153 153 153 153 153 153 153 153 153 153 153 153 153 153 341 341 341 983 983 983 983 983 384 384 384 384 116 116 116 116 129 129 129 129 129 129 198 198 198 198 198 198 198 198 198 198 272 272 272 272 272 272 272 777 777 777 777 777 777 777 777 618 618 618 618 618 618 618 618 618 434 434 434 434 434 163 163 163 163 163 163 163 163 163 163 713 713 713 713 713 713 713 276 276 276 421 421 798 153 153 153 153 153 153 153 153 153 153 153 153 153 153 153 951 951 341 341 983 983 983 983 983 384 384 384 384 116 116 116 116 599 599 599 599 599 599 599 198 198 198 198 198 198 198 198 80 80 272 272 272 272 272 272 777 777 777 777 777 777 777 777 777 618 618 618 618 618 618 618 434 434 434 434 434 434 434 163 163 163 163 163 163 163 163 163 713 713 713 713 713 713 713 276 276 276 276 798 798 798 153 153 153 153 153 153 153 153 153 153 153 153 153 951 951 951 951 951 983 983 983 279 279 279 279 279 279 116 89 116 116 599 599 599 599 599 599 599 599 198 198 198 198 198 215 80 80 80 781 781 781 75 75 75 777 777 777 777 777 777 777 777 777 618 618 618 618 618 618 706 706 434 434 434 434 434 434 523 523 523 163 163 163 163 163 163 713 713 713 713 713 713 276 276 276 276 798 798 798 798 798 153 153 153 153 153 153 153 153 153 153 153 951 951 951 951 951 951 279 279 279 279 279 279 279 279 279 279 89 89 599 599 599 599 599 599 599 599 599 599 599 215 215 215 215 215 781 781 781 781 781 781 75 75 777 777 777 777 777 777 777 777 777 777 618 618 618 618 706 706 706 434 434 434 434 434 523 523 523 523 523 523 163 163 163 163 713 713 713 713 713 713 713 276 276 798 798 798 798 798 798 798 153 153 153 153 153 153 153 153 153 951 951 951 951 951 951 951 279 279 279 279 279 279 279 279 279 279 89 89 599 599 599 599 599 599 599 599 599 599 599 215 215 215 215 781 781 781 781 781 781 781 781 781 777 777 777 777 777 777 777 777 777 777 581 581 581 706 706 706 706 706 434 434 434 523 523 523 523 523 523 523 523 163 163 163 635 713 713 713 713 713 798 798 798 798 798 798 798 798 798 798 798 153 153 153 153 153 153 153 776 776 951 951 951 951 951 767 767 279 279 279 279 279 279 279 279 279 279 89 599 599 599 599 599 599 599 599 599 599 599 215 215 215 215 781 781 781 781 781 781 781 781 781 781 777 777 777 777 777 777 777 777 106 581 581 577 706 706 706 706 706 434 523 523 523 523 523 523 523 523 523 523 523 635 635 635 635 635 713 713 798 798 798 798 798 798 798 798 798 798 798 798 798 153 153 153 776 776 776 776 776 874 874 874 874 874 767 767 279 279 279 279 279 279 279 279 279 349 349 599 349 599 599 599 599 599 599 599 599 599 547 547 215 781 781 781 781 781 781 781 781 781 781 781 781 777 777 777 777 777 777 106 106 106 577 577 577 577 706 706 706 523 523 523 523 523 523 523 523 523 523 523 523 635 635 635 635 635 635 798 798 798 798 798 798 798 798 798 798 798 798 798 798 798 153 776 776 776 776 776 874 874 874 874 874 874 874 767 128 279 279 279 279 279 279 279 279 349 349 349 57 57 57 599 599 599 599 599 599 599 547 547 547 781 781 781 781 781 781 781 781 781 781 781 781 781 777 777 777 777 106 106 106 106 577 577 577 577 577 577 523 523 523 523 523 523 523 523 523 523 523 523 523 635 635 635 635 635 635 798 798 798 798 798 798 798 798 798 798 798 798 798 798 798 209 776 776 776 776 874 874 874 874 874 874 874 874 874 128 128 279 279 279 279 279 279 349 349 349 349 57 57 57 57 57 599 599 599 599 599 547 547 547 781 781 781 781 781 781 781 781 781 781 781 781 781 781 106 106 106 106 106 106 106 577 577 577 577 577 577 523 523 523 523 523 523 523 523 523 523 523 523 523 635 635 635 635 635 635 798 798 798 798 798 798 798 798 798 798 798 798 798 798 209 209 209 776 776 874 874 874 874 874 874 874 874 874 874 128 128 128 279 279 279 279 349 349 349 349 57 57 57 57 57 57 57 57 57 599 26 547 547 781 781 781 781 781 781 781 781 781 781 781 781 781 781 781 106 106 106 106 106 106 106 106 577 577 577 577 577 577 523 523 523 523 523 523 523 523 523 523 523 523 635 635 635 635 635 635 828 798 798 798 798 798 798 798 798 798 798 798 798 209 209 209 209 209 874 874 874 874 874 874 874 874 874 874 874 128 128 128 128 279 279 349 349 349 349 57 57 57 57 57 57 57 57 57 57 57 26 26 26 781 781 781 781 781 781 781 781 781 781 781 781 781 781 106 106 106 106 106 106 106 106 106 106 577 577 577 577 577 523 523 523 523 523 523 523 523 523 523 523 523 635 635 635 635 635 828 828 828 798 798 798 798 798 798 798 798 798 798 209 209 209 209 209 209 209 874 874 874 874 874 874 874 874 874 874 128 128 128 128 912 912 912 349 349 57 57 57 57 57 57 57 57 57 57 57 57 26 26 26 781 781 781 781 781 781 781 781 781 781 781 781 781 781 106 106 106 106 106 106 106 106 106 106 106 577 577 577 577 523 520 523 523 523 523 523 523 523 523 523 523 635 635 635 828 828 828 828 828 798 798 798 798 798 798 798 798 798 209 209 209 209 209 209 209 209 353 353 874 874 874 874 874 874 874 666 666 128 128 912 912 912 912 912 912 57 57 57 57 57 57 57 57 57 57 57 57 26 26 26 781 781 781 781 781 781 781 781 781 781 781 781 781 781 106 106 106 106 106 106 106 106 106 106 106 106 819 819 819 520 520 520 523 523 523 523 523 523 523 523 523 635 635 828 828 828 828 828 828 828 798 798 798 798 798 798 798 209 209 209 209 209 209 209 209 209 353 353 353 874 874 874 874 874 874 666 666 666 912 912 912 912 912 912 912 57 57 57 57 57 57 57 57 57 57 57 57 57 26 149 149 781 781 781 781 781 781 781 781 781 781 781 781 106 106 106 106 106 106 106 106 106 106 106 106 106 819 819 819 520 520 520 520 523 523 523 523 523 523 681 681 681 828 828 828 828 828 828 828 828 798 798 798 798 798 798 209 209 209 209 209 209 209 209 209 983 983 353 353 353 874 874 874 874 666 666 666 666 994 912 912 912 912 912 912 57 57 57 57 57 57 57 57 57 57 57 57 530 530 530 530 530 781 781 781 781 781 781 781 781 781 781 781 106 106 106 106 106 106 106 106 106 106 106 106 728 672 672 672 520 520 520 520 520 523 523 523 681 681 681 681 681 828 828 828 828 828 828 828 828 798 798 798 798 798 209 209 209 209 209 209 209 209 209 983 983 983 983 353 672 672 672 672 672 666 666 666 994 994 994 912 912 912 912 912 57 57 57 57 57 57 57 57 57 57 57 530 530 530 530 530 530 571 571 571 571 781 781 781 781 781 781 106 106 106 106 106 106 106 106 106 106 106 106 728 728 728 672 672 672 520 520 520 520 683 683 683 681 681 681 266 266 266 828 828 828 828 828 828 828 685 798 798 798 414 414 209 209 209 209 209 209 209 983 983 983 983 983 672 672 672 672 672 672 672 666 994 994 994 994 912 912 912 912 912 57 57 57 57 57 57 57 57 57 57 530 530 530 530 530 530 530 571 571 571 571 571 571 571 781 835 781 106 106 106 106 106 106 106 106 106 106 106 728 728 728 728 728 672 672 672 520 520 683 683 683 683 683 681 266 266 266 266 266 266 828 828 828 828 685 685 685 685 414 414 414 414 209 209 209 209 209 983 983 983 983 983 672 672 672 672 672 672 672 672 672 540 540 994 994 912 912 912 912 912 57 57 57 57 57 57 57 57 57 57 530 530 530 530 530 530 530 571 571 571 571 571 571 571 571 855 835 106 106 106 106 106 106 106 106 106 106 728 728 728 728 728 728 672 672 672 672 683 683 683 683 683 683 683 266 266 266 266 266 266 266 828 828 685 685 685 685 685 414 414 414 414 414 209 209 755 755 983 983 983 983 983 672 672 672 672 672 672 672 672 540 540 540 540 540 540 912 912 912 912 57 57 57 57 57 57 57 57 57 530 530 530 530 530 530 530 530 571 571 571 571 571 571 571 571 612 612 612 537 537 284 284 284 284 284 284 728 728 728 728 728 728 728 672 672 672 672 683 683 683 683 683 683 683 266 266 266 266 266 266 266 266 266 685 685 685 685 414 414 414 414 414 414 755 755 755 755 755 983 983 983 672 672 672 672 672 672 672 672 672 540 540 540 540 540 540 540 912 912 912 57 57 57 57 57 57 57 387 387 387 530 530 530 530 530 530 530 571 571 571 571 571 571 571 612 612 612 612 537 537 559 284 284 284 284 284 728 728 728 728 728 728 728 672 672 672 672 683 683 683 683 683 683 683 266 266 266 266 266 266 266 266 266 444 685 685 685 414 414 414 414 414 414 755 755 755 755 755 755 755 755 672 672 672 672 672 672 672 672 672 540 540 540 540 540 540 540 540 935 935 935 57 57 57 57 387 387 387 387 387 387 530 530 530 530 530 530 571 571 571 571 571 571 612 612 612 612 612 559 559 559 559 284 284 284 284 284 728 728 728 728 728 672 672 672 672 683 683 683 683 683 683 683 683 266 266 266 266 266 266 266 266 444 444 444 685 685 414 414 414 414 414 414 755 755 755 755 755 755 755 755 672 672 672 672 672 672 672 672 540 540 540 540 540 540 540 540 540 935 935 935 935 57 387 387 387 387 387 387 387 387 387 387 530 530 530 291 291 571 571 571 571 571 612 612 612 612 612 559 559 559 559 559 284 284 284 706 706 706 706 706 706 706 672 672 672 683 683 683 683 683 683 301 301 301 301 266 266 266 266 266 266 444 444 444 444 685 414 414 414 414 414 414 755 755 755 755 755 755 755 755 672 672 672 672 703 703 703 703 540 540 540 540 540 540 540 540 540 935 935 935 935 935 387 387 387 387 387 387 387 387 387 