<?xml version="1.0"?>
<VTKFile type="ImageData" version="0.1" byte_order="LittleEndian">
<ImageData WholeExtent="0 100 0 100 0 100" Origin="0 0 0" Spacing="1 1 1">
<Piece Extent="0 100 0 100 0 100">
<PointData>
</PointData>
<CellData Scalars="Spin">
<DataArray type="Int32" Name="Spin" format="ascii" RangeMin="0" RangeMax="10000">
65 65 65 827 827 827 974 974 974 974 974 974 498 498 498 498 498 498 498 44 44 44 44 44 44 44 44 975 975 829 829 829 829 829 829 829 829 829 829 829 829 829 696 696 696 356 689 689 689 689 689 689 689 689 689 689 298 298 87 87 87 87 87 87 87 87 928 928 928 928 109 109 109 109 678 678 678 678 678 678 678 678 678 56 56 56 56 56 56 443 443 65 65 65 65 65 65 65 65 65 65 65 65 827 827 827 974 974 974 974 974 974 498 498 498 498 498 498 498 498 44 44 44 44 44 44 975 975 975 975 829 829 829 829 829 829 829 829 829 829 829 829 375 375 375 375 689 689 689 689 689 689 689 689 689 689 689 87 87 87 87 87 87 87 87 87 87 928 928 928 109 109 109 109 109 678 678 678 678 678 678 678 716 716 716 56 56 443 443 443 443 443 65 65 65 65 65 65 65 65 65 65 65 827 827 974 974 974 974 974 974 974 498 498 498 498 498 498 498 498 833 833 833 833 833 975 975 975 975 975 975 829 829 829 829 829 829 829 829 829 829 829 375 375 375 375 375 689 689 689 689 689 689 689 689 689 296 87 87 87 87 87 87 87 87 87 87 87 87 109 109 109 109 109 109 109 678 678 678 678 617 617 716 716 716 443 443 443 443 443 443 443 65 65 65 65 65 65 65 65 65 65 65 827 827 974 974 974 974 974 974 974 498 498 498 498 498 498 498 498 833 833 833 833 833 833 975 975 975 975 975 829 829 829 829 829 829 829 829 829 829 375 375 375 375 375 375 375 689 689 689 689 689 689 296 296 296 296 87 87 87 87 87 87 87 87 87 87 87 87 109 109 109 109 109 109 109 617 617 617 617 617 617 716 716 443 443 443 443 443 443 443 443 65 65 65 65 65 65 65 65 65 65 827 974 974 974 974 974 974 974 974 498 498 498 498 498 498 498 833 833 833 833 833 833 833 833 975 975 666 666 666 666 829 829 829 829 438 438 438 438 375 375 375 375 375 375 375 375 375 689 689 296 296 296 296 296 296 296 87 87 87 87 87 87 87 87 87 87 87 109 109 109 109 109 109 617 617 617 617 617 617 617 617 443 443 443 443 443 443 443 443 443 65 65 65 65 65 65 65 718 718 718 974 974 974 974 974 974 974 974 974 498 498 498 498 498 498 833 833 833 833 833 833 833 833 833 666 666 666 666 666 666 666 666 666 438 438 438 438 447 375 375 375 375 375 375 375 375 375 375 296 296 296 296 296 296 296 296 87 87 87 87 87 87 87 87 87 87 87 18 18 18 18 18 18 617 617 617 617 617 617 617 617 617 443 443 443 443 443 443 443 443 684 65 65 65 65 65 65 718 718 718 718 974 974 974 974 974 974 974 974 936 936 498 498 498 833 833 833 833 833 833 833 833 833 833 666 666 666 666 666 666 666 666 666 438 438 438 438 447 375 375 375 375 375 375 375 375 375 375 296 296 296 296 296 296 296 296 296 87 87 87 87 87 87 87 87 87 18 18 18 18 18 18 18 18 617 617 617 617 617 617 617 617 617 443 443 443 443 443 443 7 684 684 65 718 718 718 718 718 718 718 140 140 974 974 974 974 974 974 936 936 936 936 936 936 833 833 833 833 833 833 833 833 833 917 917 666 666 666 666 666 666 666 666 666 438 438 447 447 447 375 375 375 375 375 375 375 375 375 296 296 296 296 296 296 296 296 296 87 87 87 87 87 87 87 87 18 18 18 18 18 18 18 18 18 617 617 617 617 617 617 617 617 617 443 443 443 443 7 7 7 7 684 718 718 718 718 718 718 718 140 140 140 140 974 974 974 965 965 936 936 936 936 936 936 833 833 833 833 833 833 833 833 917 917 917 666 666 666 666 666 666 666 666 666 438 447 447 447 447 375 375 375 375 375 375 375 375 375 296 296 296 296 296 296 296 296 296 87 87 87 87 87 87 808 808 18 18 18 18 18 18 18 18 18 18 617 601 617 617 617 617 617 617 568 443 443 7 7 7 7 7 7 718 718 718 718 718 718 718 140 140 140 140 140 965 965 965 965 965 936 936 936 936 936 936 833 833 833 833 833 833 917 917 917 917 666 666 666 666 666 666 666 666 666 666 447 447 447 447 447 375 375 375 375 375 375 375 375 296 296 296 296 296 296 296 296 296 87 87 87 87 87 808 808 252 252 18 18 18 18 18 18 18 18 18 601 601 601 617 617 617 617 617 568 568 7 7 7 7 7 7 7 718 718 718 718 718 718 140 140 140 140 140 140 965 965 965 965 965 965 936 936 936 936 936 936 833 833 833 833 917 917 917 917 917 666 666 666 666 666 666 666 666 666 666 447 447 447 447 447 375 375 375 375 375 375 375 175 175 296 296 296 296 296 296 296 629 629 277 277 277 277 252 252 252 252 252 18 18 18 18 18 18 18 18 601 601 601 601 601 601 617 617 660 660 7 7 7 7 7 7 7 718 718 718 718 718 140 140 140 140 140 140 140 965 965 965 965 965 965 965 936 936 936 936 936 936 897 897 917 917 917 917 917 917 666 666 666 666 666 666 666 666 666 666 447 447 447 447 447 447 375 375 375 375 375 206 206 206 206 296 296 296 296 296 629 629 629 629 277 277 252 252 252 252 252 252 252 18 18 18 18 18 18 96 601 601 601 601 601 601 601 660 660 660 660 7 7 7 7 7 7 718 718 718 718 718 140 140 140 140 140 140 140 965 965 965 965 965 965 965 936 936 936 936 936 936 897 897 917 917 917 917 917 917 666 666 666 666 666 666 666 666 666 530 447 447 447 447 447 472 472 472 472 472 472 206 206 206 206 167 167 296 296 629 629 629 629 629 629 252 252 252 252 252 252 252 252 252 18 18 18 96 96 96 96 601 601 601 601 601 660 660 660 660 660 7 7 7 7 7 7 70 70 70 70 140 140 140 140 140 140 140 140 965 965 965 965 965 965 965 936 936 936 936 936 897 897 897 897 917 917 917 917 917 917 666 666 666 666 666 666 666 530 530 530 447 447 447 472 472 472 472 472 472 472 206 206 206 167 167 167 167 831 831 831 831 831 831 831 252 252 252 252 252 252 252 252 252 252 18 96 96 96 96 96 96 601 601 601 601 660 660 660 660 660 660 7 7 7 987 70 70 70 70 70 140 140 140 140 140 140 140 965 965 965 965 965 965 965 965 936 936 936 936 936 897 897 897 897 897 917 917 917 917 917 666 666 666 666 666 666 666 530 530 530 530 472 472 472 472 472 472 472 472 472 206 206 167 167 167 167 167 831 831 831 831 831 831 831 831 252 252 252 252 252 252 252 252 252 96 96 96 96 96 96 96 96 601 601 660 660 660 660 660 660 660 474 474 987 987 70 70 70 70 70 70 140 140 140 140 140 140 965 965 965 965 965 965 965 842 842 936 936 936 936 897 897 897 897 390 390 390 390 390 390 390 703 703 228 228 228 228 228 530 530 530 472 472 472 472 472 472 472 472 472 206 167 167 167 167 167 167 831 831 831 831 831 831 831 831 195 252 252 252 252 252 252 252 252 96 96 96 96 96 96 96 208 208 208 660 660 660 660 660 660 474 474 474 474 987 70 70 70 70 70 70 140 140 140 140 140 140 965 965 965 965 965 965 842 842 842 842 936 876 876 876 897 897 390 390 390 390 390 390 390 390 390 228 228 228 228 228 228 228 530 472 472 472 472 472 472 472 472 472 472 167 167 167 167 167 167 831 831 831 831 831 831 831 831 831 195 195 252 252 252 252 252 252 252 96 96 96 96 96 96 208 208 208 208 233 233 660 660 660 474 474 474 474 474 474 70 70 70 70 70 70 116 108 108 108 108 995 995 995 995 965 965 842 842 842 842 842 876 876 876 876 876 876 390 390 390 390 390 390 390 390 390 228 228 228 228 228 228 228 228 472 472 472 472 472 472 472 472 472 472 167 167 167 167 167 167 831 831 831 831 831 831 831 831 831 195 195 195 252 252 252 252 252 252 96 96 96 96 96 208 208 208 208 208 233 233 233 233 233 474 474 474 474 474 116 116 116 116 116 116 116 116 116 108 108 995 995 995 995 995 995 995 842 842 842 842 842 876 876 876 876 876 876 390 390 390 390 390 390 390 390 390 228 228 228 228 228 228 228 228 472 472 472 472 472 472 472 472 472 472 167 167 167 167 167 167 831 831 831 831 831 831 831 831 195 195 195 195 195 195 252 252 252 252 96 96 96 96 96 208 208 208 208 233 233 233 233 233 233 233 474 474 474 116 116 116 116 116 116 116 116 116 116 43 995 995 995 995 995 995 995 995 720 720 842 842 876 876 876 876 876 876 876 390 390 390 390 390 390 390 390 390 390 228 228 228 228 228 228 228 472 472 472 472 472 472 472 472 472 655 655 655 655 655 655 655 831 831 831 831 831 831 831 195 195 195 195 195 195 195 195 195 252 583 583 96 96 96 208 208 208 208 233 233 233 233 233 233 233 233 233 912 912 912 116 116 116 116 116 116 116 116 43 43 43 995 995 995 995 995 995 720 720 720 720 720 876 876 876 876 876 876 876 390 390 390 390 390 390 390 390 390 390 228 228 228 228 228 228 709 709 472 472 472 472 472 472 472 655 655 655 655 655 655 655 655 784 784 784 784 784 831 195 195 195 195 195 195 195 195 195 195 195 583 583 583 883 883 883 208 208 233 233 233 233 233 233 233 233 233 912 912 912 912 116 116 116 116 116 116 116 43 43 43 43 43 995 995 995 995 720 720 720 720 720 720 720 876 876 876 876 876 390 390 390 390 390 390 390 390 390 390 390 390 228 228 228 228 228 709 709 709 472 472 472 472 472 313 313 655 655 655 655 655 655 784 784 784 784 784 784 784 195 195 195 195 195 195 195 195 195 195 53 112 583 883 883 883 883 883 883 883 233 233 233 233 233 233 233 233 912 912 912 912 912 116 116 116 116 116 116 43 43 43 43 43 43 995 995 995 720 720 720 720 720 720 720 720 876 876 876 876 390 390 390 390 390 390 390 390 390 390 390 390 228 228 228 228 709 709 709 308 308 308 285 285 313 313 313 655 655 655 655 655 655 784 784 784 784 784 784 784 195 195 195 195 195 195 195 195 195 53 53 53 53 883 883 883 883 883 883 883 883 233 233 233 233 233 233 233 912 912 912 912 912 116 116 116 116 116 116 43 43 43 43 43 43 141 141 141 720 720 720 720 720 720 720 720 720 876 876 876 390 390 390 390 390 390 390 390 390 390 390 390 383 383 383 383 709 709 308 308 308 308 285 285 313 313 313 655 655 655 655 655 784 784 784 784 784 784 784 597 597 597 195 195 195 195 195 195 53 53 53 53 53 883 883 883 883 883 883 883 883 883 233 233 233 233 233 233 912 912 912 912 912 912 116 116 116 116 43 43 43 43 43 43 141 141 141 141 720 720 720 720 720 720 720 720 487 487 487 487 390 390 390 390 390 390 390 390 390 390 390 383 383 383 383 383 383 308 308 308 308 308 285 285 313 313 313 655 655 655 655 655 784 784 784 784 784 784 597 597 597 597 597 195 195 195 195 53 53 53 53 53 53 883 883 883 883 883 883 883 883 883 883 233 233 233 233 674 912 912 912 912 912 912 116 116 116 116 43 43 43 43 43 141 141 141 141 141 141 720 720 720 720 720 720 487 487 487 487 487 487 390 390 390 390 390 390 390 390 390 390 383 383 383 383 383 383 53 53 53 53 53 120 120 120 313 313 655 655 655 655 662 784 784 784 784 784 597 597 597 597 597 597 597 195 53 53 53 53 53 53 53 53 883 883 883 883 883 883 883 883 883 883 883 233 674 674 674 674 674 912 912 912 912 912 116 116 43 43 43 43 43 141 141 141 141 141 141 141 141 720 720 720 720 487 487 487 487 487 487 487 487 390 390 390 390 390 390 601 601 601 383 383 383 383 383 53 53 53 53 53 53 120 120 120 120 120 655 655 655 662 662 662 784 784 784 597 597 597 597 597 597 597 597 597 53 53 53 53 53 53 53 53 883 883 883 883 883 883 883 883 883 883 883 674 674 674 674 674 674 674 912 912 912 912 354 354 354 43 354 43 141 141 141 141 141 141 141 141 141 141 720 720 487 487 487 487 487 487 487 487 487 414 414 414 414 601 601 601 601 601 601 383 383 383 53 53 53 53 53 53 53 120 120 120 120 120 120 120 662 662 662 662 662 662 597 597 597 597 597 597 597 597 597 597 53 53 53 53 53 53 53 53 53 883 883 883 883 883 883 883 883 883 883 674 674 674 674 674 674 674 674 561 561 561 354 354 354 354 354 354 141 141 141 141 141 141 141 141 141 141 141 487 487 487 487 487 487 487 487 487 487 414 414 414 414 601 601 601 601 601 601 601 383 53 53 53 53 53 53 53 120 120 120 120 120 120 120 120 120 662 662 662 662 662 597 597 597 597 597 597 597 597 597 597 53 53 53 53 53 53 53 53 993 993 993 883 883 883 883 883 883 883 883 674 674 674 674 674 674 674 674 561 561 561 561 354 354 354 354 354 141 141 141 141 141 141 141 141 141 141 141 487 487 487 487 487 487 487 487 487 487 414 414 414 414 601 601 601 601 601 601 601 53 53 53 53 53 53 53 53 120 120 120 120 120 120 120 120 120 997 997 662 774 774 774 774 597 597 597 597 597 597 597 597 53 53 53 53 53 53 53 993 993 993 993 993 883 883 883 883 883 883 674 674 674 674 674 674 674 674 674 561 561 561 561 561 354 354 354 354 141 141 141 141 141 141 141 141 141 141 141 487 487 487 487 487 487 487 487 487 487 414 414 414 414 601 601 601 601 601 601 601 53 53 53 53 53 53 53 120 120 120 120 120 120 120 120 120 120 120 120 774 774 774 774 774 774 597 597 597 33 33 33 33 53 53 53 53 53 993 993 993 993 993 993 993 993 883 883 883 883 883 674 674 674 674 674 674 674 674 561 561 561 561 561 561 561 354 354 141 141 141 141 141 141 141 141 141 141 141 141 487 487 487 487 487 487 487 487 487 487 414 414 414 414 601 601 601 601 601 601 601 53 53 53 53 53 53 53 120 120 120 120 120 120 120 120 120 120 120 774 774 774 774 774 774 774 774 33 33 33 33 33 33 909 909 993 993 993 993 993 993 993 993 993 993 993 993 883 883 883 794 674 674 674 674 674 674 674 561 561 561 561 561 561 561 561 561 561 141 141 141 141 141 141 141 141 141 141 141 141 487 487 487 487 487 487 487 949 949 553 553 553 553 553 553 601 601 601 601 788 788 788 53 53 53 53 53 53 120 120 120 120 120 120 120 120 120 120 120 774 774 774 774 774 774 774 774 33 33 33 33 33 33 993 993 993 993 993 993 993 993 993 993 993 993 993 993 993 971 794 794 794 674 674 674 674 674 674 561 561 561 561 561 561 561 561 561 887 887 141 141 141 141 141 141 141 141 141 141 548 548 548 487 487 487 487 949 949 553 553 553 553 553 553 553 788 788 788 788 788 788 788 788 53 53 53 53 120 120 120 120 120 120 120 120 120 120 120 651 651 774 774 774 774 774 774 774 33 33 33 33 33 993 993 993 993 993 993 993 993 993 993 993 993 993 993 993 993 794 794 794 794 794 794 674 674 674 561 561 561 561 561 561 561 561 561 561 887 887 887 141 141 141 141 141 141 141 141 548 548 548 548 548 487 949 949 949 949 553 553 553 553 553 553 553 553 788 788 788 788 788 788 788 745 745 745 745 745 120 120 120 120 120 120 120 120 120 651 651 651 651 774 774 774 774 774 175 175 175 175 175 175 993 993 993 993 993 993 993 993 993 993 993 993 993 993 993 993 794 794 794 794 794 794 794 794 561 561 561 561 561 561 561 561 561 561 887 887 887 887 887 141 141 141 141 141 141 548 548 548 548 548 548 548 949 949 553 553 553 553 553 553 553 553 553 553 788 788 788 788 788 788 745 745 745 745 745 745 745 120 120 120 120 120 120 120 120 651 651 651 651 651 774 774 774 175 175 175 175 175 175 175 175 993 993 993 993 993 993 993 993 993 993 993 993 993 635 635 635 794 794 794 794 794 794 794 561 561 561 561 561 561 561 561 561 887 887 887 887 887 887 50 50 141 141 141 548 548 548 548 548 548 548 548 553 553 553 553 553 553 553 553 553 553 553 553 788 788 788 788 788 788 745 745 745 745 745 745 745 745 120 120 120 120 120 120 120 651 651 651 651 651 452 774 175 175 175 175 175 175 175 175 175 993 993 993 993 993 993 993 993 993 993 993 993 993 635 635 635 635 794 794 794 794 794 794 561 561 561 561 561 561 561 561 561 887 887 887 887 887 887 50 50 141 141 548 548 548 548 548 548 548 548 971 553 553 553 553 553 553 553 553 553 553 553 553 788 788 788 788 788 745 745 745 745 745 745 745 745 745 745 120 120 120 120 120 651 651 651 651 651 452 452 452 175 175 175 175 175 175 175 175 175 993 993 993 993 993 993 993 993 993 993 993 993 635 635 635 635 635 635 794 794 794 794 794 561 561 561 561 561 561 561 561 561 887 887 47 47 47 402 402 402 402 50 548 548 548 548 548 548 548 971 971 971 553 553 553 553 553 553 553 553 553 553 553 622 622 788 788 788 745 745 745 745 745 745 745 745 745 745 576 576 576 576 576 576 651 651 651 452 452 452 452 175 175 175 175 175 175 175 175 175 993 993 993 993 993 993 993 993 993 993 993 993 635 635 635 635 635 635 794 794 794 794 794 696 561 561 561 561 561 561 561 561 47 47 47 47 402 402 402 402 402 402 548 548 548 548 548 971 971 971 971 971 553 553 553 553 553 553 553 553 553 553 622 622 622 622 788 745 745 745 745 745 745 745 745 745 745 745 576 576 576 576 576 576 576 651 452 452 452 452 452 175 175 175 175 175 175 175 175 175 175 993 993 993 993 993 993 993 993 993 993 993 635 635 635 635 635 635 635 794 794 696 696 696 696 561 561 561 65 65 65 65 47 47 47 402 402 402 402 402 402 402 402 548 548 548 971 971 971 971 971 971 971 553 553 553 553 553 553 553 553 553 622 622 622 622 745 745 745 745 745 745 745 745 745 745 745 576 576 576 576 576 576 576 576 576 452 452 452 452 452 175 175 175 175 175 175 175 175 175 175 175 993 993 993 993 993 993 993 993 993 993 635 635 635 635 635 635 635 696 696 696 696 696 696 696 65 65 65 65 65 65 65 47 402 402 402 402 402 402 402 402 402 402 971 971 971 971 971 971 971 971 971 971 553 553 553 553 553 553 553 553 622 622 622 622 745 745 745 745 745 745 745 745 745 745 745 576 576 576 576 576 576 576 576 576 576 452 452 452 317 175 175 175 175 175 175 175 175 175 175 175 769 769 769 993 993 993 993 303 303 303 303 635 635 635 635 635 696 696 696 696 696 696 696 696 65 65 65 65 65 65 65 65 402 402 402 402 402 402 402 402 402 402 971 971 971 971 971 971 971 971 971 971 553 553 553 553 553 553 553 553 622 622 622 622 745 745 745 745 745 745 745 745 745 745 576 576 576 576 576 576 576 576 576 576 576 576 317 317 317 317 175 175 175 175 175 175 175 175 175 769 769 769 769 769 769 993 303 303 303 303 303 760 659 659 659 696 696 696 696 696 696 696 696 696 65 65 65 65 65 65 65 402 402 402 402 402 402 402 402 402 402 402 971 971 971 971 971 971 971 971 971 971 553 553 553 553 553 553 553 553 553 622 622 622 745 745 745 745 745 745 745 745 745 576 576 576 576 576 576 576 576 576 576 576 576 576 317 317 317 317 317 175 175 175 175 175 175 175 769 769 769 769 769 769 769 769 303 303 303 303 760 659 659 659 659 659 696 696 696 696 696 696 696 696 65 65 65 65 65 65 65 402 402 402 402 402 402 402 402 402 402 402 971 971 971 971 971 971 971 971 971 971 553 553 553 553 553 553 553 553 275 275 275 275 275 745 745 745 745 745 745 745 576 576 576 576 576 576 576 576 576 576 576 576 576 576 317 317 317 317 317 175 175 175 175 175 175 769 769 769 769 769 769 769 769 769 303 303 303 760 760 659 659 659 659 659 696 696 696 696 696 696 696 496 496 65 65 65 65 65 402 402 402 402 402 402 402 402 402 402 402 402 971 971 971 971 971 971 971 971 971 971 553 553 553 553 553 553 553 275 275 275 275 275 275 275 745 745 745 745 745 745 576 576 576 576 576 576 576 576 576 576 576 576 576 576 317 317 317 317 317 317 175 175 175 175 175 769 769 769 769 769 769 769 769 769 769 303 303 760 659 659 659 659 659 659 659 696 696 696 696 696 496 496 496 496 65 65 65 65 402 402 402 402 402 402 402 402 402 402 402 402 971 971 971 971 971 971 971 971 971 971 553 553 553 553 553 553 275 275 275 275 275 275 275 275 311 745 745 745 745 576 576 576 576 576 576 576 576 576 576 576 576 576 576 576 317 317 317 317 317 317 175 175 175 175 523 523 769 769 769 769 769 769 769 769 769 875 875 875 659 659 659 659 659 659 659 696 696 696 696 496 496 496 496 496 496 65 65 402 402 402 402 402 402 402 402 402 402 402 402 402 402 971 971 971 971 971 971 971 893 893 893 553 553 553 553 471 275 275 275 275 275 275 275 311 311 311 311 117 103 103 576 576 576 576 576 576 576 576 576 576 576 576 576 576 317 317 317 317 234 234 234 523 523 523 523 523 523 769 769 769 769 769 769 769 875 875 875 875 875 659 659 659 659 659 741 741 741 496 496 496 496 496 496 496 496 496 496 402 402 402 402 402 402 402 402 402 402 402 402 402 402 268 971 971 971 971 971 893 893 893 893 893 893 471 471 471 471 275 275 275 275 275 311 311 311 311 311 311 103 103 103 576 576 576 576 576 576 576 576 576 576 576 576 576 576 234 234 234 234 234 234 523 523 523 523 523 523 523 769 769 769 769 769 875 875 875 875 875 875 875 659 659 659 741 741 741 741 496 496 496 496 496 496 496 496 496 496 402 402 402 402 402 402 402 402 402 402 402 402 402 268 268 268 268 268 268 893 893 893 893 893 893 893 471 471 471 471 471 275 275 311 311 311 311 311 311 311 311 103 103 103 103 103 576 576 576 576 576 576 576 576 576 576 576 234 234 234 234 234 234 523 523 523 523 523 523 523 523 523 769 84 84 84 875 875 875 875 875 875 875 875 659 741 741 741 741 741 496 496 496 496 496 496 496 496 496 496 402 402 402 402 402 402 402 402 402 402 402 402 402 268 268 268 268 268 268 893 893 893 893 893 893 893 471 471 471 471 471 375 311 311 311 311 311 311 311 311 311 103 103 103 103 103 103 576 576 576 576 576 576 576 576 576 576 234 234 234 234 234 234 523 523 523 523 523 523 523 523 523 84 84 84 84 875 875 875 875 875 875 875 875 875 741 741 741 741 741 496 496 496 496 496 496 496 496 496 496 496 402 402 402 402 402 402 402 402 402 402 402 268 268 268 268 268 268 268 893 893 893 893 893 893 893 471 471 471 375 375 375 311 311 311 311 311 311 311 311 311 103 103 103 103 103 103 103 103 576 576 576 576 576 576 636 636 636 234 234 234 234 234 523 523 523 523 523 523 523 523 523 84 84 84 84 84 875 875 875 875 875 875 875 875 741 741 741 741 741 496 496 496 496 496 496 496 496 496 496 496 402 402 402 402 402 402 402 402 402 402 268 268 268 268 268 268 268 268 893 893 893 893 893 893 893 375 375 375 375 375 375 311 311 311 311 311 311 311 311 311 103 103 103 103 103 103 103 103 103 576 576 636 636 636 636 636 636 656 656 656 656 656 523 523 523 523 523 523 523 523 84 84 84 84 84 84 875 875 875 875 875 875 875 875 875 741 741 741 741 496 496 496 496 496 496 496 496 496 496 496 402 402 402 402 402 402 402 402 402 602 268 268 268 268 268 268 268 268 893 893 893 893 893 893 893 375 375 375 375 375 375 311 311 311 311 311 311 311 311 311 103 103 103 103 103 103 103 103 103 636 636 636 636 636 636 636 636 656 656 656 656 656 656 523 523 523 523 523 523 84 84 84 84 84 84 84 875 875 875 875 875 875 875 875 875 764 764 764 764 459 459 496 496 496 496 496 496 496 496 926 926 402 926 402 402 402 402 602 602 602 602 268 268 268 268 268 268 268 893 893 893 893 893 893 375 375 375 375 375 375 375 311 311 311 311 311 311 311 311 311 103 103 103 103 103 103 103 103 103 636 636 636 636 636 636 636 636 656 656 656 656 656 656 523 523 523 523 523 523 84 84 84 84 84 84 84 875 875 875 875 875 875 875 875 875 764 764 764 764 459 459 459 459 459 496 496 496 496 926 926 926 926 926 926 308 308 602 602 602 602 602 602 268 268 268 268 268 268 773 773 773 773 773 773 773 375 375 375 375 375 375 375 311 311 311 311 311 311 311 311 103 103 103 103 103 103 103 103 103 636 636 636 636 636 636 636 636 656 656 656 656 656 656 390 390 390 390 523 84 84 84 84 84 84 84 84 875 875 875 875 875 875 875 875 875 764 764 764 764 234 459 459 459 459 252 252 252 926 926 926 926 926 926 926 308 308 602 602 602 602 602 602 602 268 268 268 424 773 773 773 773 773 773 773 773 503 375 375 375 375 375 250 250 250 250 250 250 250 250 148 148 148 103 103 103 103 103 103 103 636 636 636 636 636 636 636 636 656 656 656 656 656 390 390 390 390 390 390 390 84 84 84 84 84 84 84 875 875 875 875 875 875 875 875 875 764 234 234 234 234 234 234 252 252 252 252 252 926 926 926 926 926 926 926 308 308 602 602 602 602 602 602 943 943 943 424 424 773 773 773 773 773 773 773 773 503 503 375 375 375 250 250 250 250 250 250 250 250 250 148 148 148 148 103 103 103 103 103 103 636 636 636 636 636 636 636 636 656 656 656 656 390 390 390 390 390 390 390 390 390 84 84 84 84 84 449 449 449 875 875 875 875 875 875 875 234 234 234 234 234 234 234 252 252 252 252 252 926 926 926 926 926 926 926 94 94 602 602 602 602 602 943 943 943 943 943 943 773 773 773 773 773 773 773 773 503 503 503 503 250 250 250 250 250 250 250 250 250 250 148 148 148 148 148 103 103 103 103 103 636 636 636 636 636 636 636 636 46 656 656 390 390 390 390 390 390 390 390 390 390 390 84 84 84 449 449 449 449 449 449 875 875 875 875 234 234 234 234 234 234 234 234 234 252 252 252 252 926 926 926 926 926 926 94 94 94 94 602 602 602 943 943 943 943 943 943 943 943 773 773 773 773 773 773 773 907 907 503 503 250 250 250 250 250 250 250 250 250 250 148 148 148 662 662 662 662 662 333 333 636 636 636 636 636 636 636 46 46 46 46 390 390 390 390 390 390 390 390 390 390 390 390 84 449 449 449 449 449 449 449 449 449 72 72 234 234 234 234 234 234 234 234 234 252 252 252 252 926 926 926 926 926 94 94 94 94 94 94 94 943 943 943 943 943 943 943 943 943 773 773 773 773 773 773 907 907 907 907 250 250 250 250 250 250 250 250 250 250 250 250 148 662 662 662 662 662 662 333 333 333 636 636 636 636 636 46 46 46 46 46 390 390 390 390 390 390 390 390 390 390 390 390 449 449 449 449 449 449 449 449 449 449 449 449 234 234 234 234 234 234 234 234 234 203 203 203 203 926 926 926 926 926 94 94 94 94 94 94 94 943 943 943 943 943 943 943 943 943 943 773 773 773 773 907 907 907 907 907 907 250 250 250 250 250 250 250 250 250 250 250 662 662 662 662 662 662 662 333 333 333 333 636 636 636 46 46 46 46 46 46 390 390 390 390 390 390 390 390 390 390 390 390 449 449 449 449 449 449 449 449 449 449 449 449 234 234 234 234 234 234 234 234 203 203 203 203 203 203 926 926 926 94 94 94 94 94 94 94 94 943 943 943 943 943 943 943 943 943 943 847 847 847 907 907 907 907 907 907 907 250 250 250 250 250 250 250 250 250 250 250 662 662 662 662 662 662 662 333 333 333 333 793 793 793 46 46 46 46 46 981 981 390 390 390 390 390 390 390 390 390 390 531 531 449 449 449 449 449 449 449 449 449 449 449 449 234 234 234 234 234 234 203 203 203 203 203 203 203 203 203 94 94 94 94 94 94 94 94 94 943 943 943 943 943 943 943 943 943 847 847 847 847 847 907 907 907 907 907 907 250 250 250 250 250 250 250 250 250 250 250 340 662 662 662 662 662 662 333 333 793 793 793 793 793 793 46 46 46 981 981 981 981 981 981 390 390 390 390 390 531 531 531 531 531 449 449 449 449 449 449 449 449 449 449 256 256 234 234 234 234 203 203 203 203 203 203 203 203 203 203 94 94 94 94 94 94 94 94 94 943 943 943 943 943 943 943 943 943 847 847 847 847 847 847 671 907 907 907 188 250 250 250 250 250 250 250 250 250 250 340 340 340 340 662 662 662 793 793 793 793 793 793 793 793 203 203 981 981 981 981 981 981 981 981 981 981 981 981 531 531 531 531 531 531 531 449 449 449 449 449 449 449 449 449 256 331 331 234 234 203 203 203 203 203 203 203 203 203 203 203 94 94 94 94 94 94 94 94 94 943 943 943 943 943 943 943 943 943 847 847 847 847 847 671 671 671 671 671 671 622 250 250 250 250 250 250 250 340 340 340 340 340 340 340 340 793 793 793 793 793 793 793 793 793 203 203 981 981 981 981 981 981 981 981 981 981 981 981 531 531 531 531 531 531 531 531 449 449 449 449 449 449 449 449 303 303 303 203 203 203 203 203 203 203 203 203 203 203 203 203 94 94 94 94 94 94 94 94 94 943 943 943 943 943 943 943 943 847 847 847 847 847 671 671 671 671 671 671 671 622 622 622 250 250 250 250 340 340 340 340 340 340 340 340 340 793 793 793 793 793 793 793 793 793 203 203 981 981 981 981 981 981 981 981 981 981 981 981 531 531 531 531 531 531 531 531 531 449 449 449 449 449 449 449 303 303 303 203 203 203 203 203 203 203 203 203 203 203 203 203 94 94 94 94 94 94 94 94 94 581 943 943 943 943 943 943 943 847 847 847 847 671 671 671 671 671 671 671 671 622 622 622 622 250 250 340 340 340 340 340 340 340 340 340 340 793 793 793 793 793 793 793 793 159 159 159 981 981 981 981 981 981 981 981 981 981 981 981 531 531 531 531 531 531 531 531 531 449 449 449 449 449 449 303 303 303 303 203 203 203 203 203 203 203 203 203 203 203 203 203 94 94 94 94 94 94 94 94 581 581 581 581 943 943 943 943 943 847 847 847 671 671 671 671 671 671 671 671 671 671 622 622 622 622 340 340 340 340 340 340 340 340 340 340 340 561 561 561 561 561 793 793 159 159 159 159 159 981 981 981 981 981 981 981 981 981 981 317 317 531 531 531 531 531 531 531 531 678 678 678 678 678 678 303 303 303 303 203 203 203 203 203 203 203 203 203 203 203 203 203 94 94 94 94 94 94 94 581 581 581 581 581 581 943 943 943 619 619 619 619 671 671 671 671 671 671 671 671 671 671 622 622 622 842 842 340 340 340 340 340 340 340 472 472 472 561 561 561 561 561 561 159 159 159 159 159 159 159 981 981 981 981 981 981 981 981 317 317 317 317 501 501 531 531 531 531 28 28 678 678 678 678 745 745 745 745 303 203 203 203 203 203 203 203 203 203 203 203 203 203 94 94 94 94 94 94 581 581 581 581 581 581 581 581 943 619 619 619 619 619 671 671 671 671 671 671 671 671 671 671 671 622 842 842 842 842 340 340 340 472 472 472 472 472 472 561 561 561 561 561 561 159 159 159 159 159 159 159 159 981 981 981 981 981 981 981 317 317 501 501 501 501 501 501 501 28 28 28 28 28 28 28 140 140 745 745 745 203 203 203 203 203 203 203 203 203 203 203 203 203 94 94 94 94 94 94 581 581 581 581 581 581 581 581 619 619 619 619 619 619 619 671 671 671 671 671 671 671 671 671 671 842 842 842 842 842 842 842 472 472 472 472 472 472 472 561 561 561 561 561 561 159 159 159 159 159 159 159 159 41 41 41 41 41 41 41 317 501 501 501 501 501 501 501 501 28 28 28 28 28 28 28 28 140 745 285 745 745 435 203 203 203 203 203 203 203 203 203 203 203 94 94 94 94 94 581 581 581 581 581 581 581 581 581 619 619 619 619 619 619 619 619 671 671 671 671 671 671 671 671 671 842 842 842 842 842 842 842 472 472 472 472 472 472 472 561 561 561 561 561 561 159 159 159 159 159 159 159 159 41 41 41 41 41 41 41 41 501 501 501 501 501 501 501 501 28 28 28 28 28 28 28 28 28 285 285 285 435 435 435 203 203 203 203 203 203 203 203 661 661 661 661 14 14 891 891 581 581 581 581 581 581 581 660 619 619 619 619 619 619 619 619 619 671 671 671 671 671 671 671 671 842 842 842 842 842 842 842 472 472 472 472 472 472 472 561 561 561 561 561 561 858 159 159 159 159 159 159 41 41 41 41 41 41 41 41 41 501 501 501 501 501 501 501 501 28 28 28 28 28 28 28 28 285 285 285 285 435 435 435 435 435 203 203 661 661 661 661 661 661 661 661 14 14 891 891 891 581 581 660 660 660 660 660 619 619 619 619 619 619 619 619 619 998 998 998 998 998 998 998 998 842 842 842 842 842 842 842 472 472 472 472 472 472 472 561 561 561 561 561 858 858 858 159 159 159 159 41 41 41 41 41 41 41 41 41 41 501 501 501 501 501 501 501 501 28 28 28 28 28 28 28 28 899 899 899 899 435 435 435 435 435 661 661 661 661 661 661 661 661 661 661 661 14 891 891 891 660 660 660 660 660 660 660 660 619 619 619 619 619 619 619 619 998 998 998 998 998 998 998 998 998 145 145 145 145 842 145 145 84 472 472 472 472 472 561 561 561 561 858 858 858 858 202 202 202 202 202 41 41 41 41 41 41 41 41 41 501 501 501 501 501 501 501 501 28 28 28 28 28 28 899 899 899 899 899 899 899 435 435 435 435 661 661 661 661 661 661 661 661 661 661 661 996 996 996 996 660 660 660 660 660 660 660 660 314 314 314 314 314 314 619 998 998 998 998 998 998 998 998 998 998 145 145 145 145 145 145 84 84 472 472 472 472 472 242 242