<?xml version="1.0"?>
<VTKFile type="ImageData" version="0.1" byte_order="LittleEndian">
<ImageData WholeExtent="0 100 0 100 0 100" Origin="0 0 0" Spacing="1 1 1">
<Piece Extent="0 100 0 100 0 100">
<PointData>
</PointData>
<CellData Scalars="Spin">
<DataArray type="Int32" Name="Spin" format="ascii" RangeMin="0" RangeMax="10000">
124 124 124 124 124 124 941 941 941 941 941 941 941 941 103 103 103 103 103 103 103 103 103 103 275 275 275 361 361 704 704 704 712 712 712 712 712 712 712 712 712 712 820 820 582 582 582 582 582 935 935 935 935 935 935 935 935 935 935 935 568 806 806 806 806 806 806 806 806 374 374 374 374 374 374 374 374 123 123 123 123 123 285 285 285 285 285 285 285 285 285 67 67 67 67 67 124 124 124 124 124 124 124 124 124 124 941 941 941 941 941 941 941 941 103 103 103 103 103 103 103 103 103 103 103 361 361 361 361 361 704 704 704 712 712 712 712 712 712 712 712 712 820 582 582 582 582 582 582 582 935 935 935 935 935 935 935 935 935 935 806 806 806 806 806 806 806 806 806 806 374 374 374 374 374 374 123 123 123 123 123 123 285 285 285 285 285 285 285 285 285 285 67 67 67 67 124 124 124 124 124 124 124 124 124 124 941 941 941 941 941 941 941 941 103 103 103 103 103 103 103 103 103 103 361 361 361 361 361 361 361 704 704 594 594 594 712 712 712 712 712 712 582 582 582 582 582 582 582 582 582 935 935 935 935 935 935 935 935 806 806 806 806 806 806 806 806 806 806 806 918 918 918 918 123 123 123 123 123 123 123 123 285 285 285 285 285 285 285 285 285 285 285 732 732 732 124 124 124 124 124 124 124 124 124 124 660 660 660 941 941 941 941 946 946 103 103 103 103 103 103 103 103 103 361 361 361 361 361 361 361 704 704 594 594 594 594 594 594 312 312 312 582 582 582 582 582 582 582 582 582 935 935 935 935 935 935 935 806 806 806 806 806 806 806 806 806 806 806 806 806 918 918 918 123 123 123 123 123 123 123 123 393 285 285 285 285 285 285 285 285 285 732 732 732 732 124 124 124 124 124 124 124 124 124 660 660 660 660 660 660 941 946 946 946 946 103 103 103 103 103 103 103 103 361 361 361 361 361 361 361 704 594 594 594 594 594 594 594 312 312 312 312 582 582 582 582 582 582 582 582 582 935 935 935 935 935 935 806 806 806 806 806 806 806 806 806 806 806 806 806 693 693 693 123 123 123 123 123 123 123 393 393 393 285 285 285 285 285 285 285 190 190 732 732 732 732 124 124 124 124 124 124 124 660 660 660 660 660 660 660 660 946 946 946 946 946 103 103 103 103 103 103 103 361 361 361 361 361 361 361 361 594 594 594 594 594 594 594 312 312 312 312 312 582 582 582 582 582 582 582 582 481 935 935 935 935 806 806 806 806 806 806 806 806 806 806 806 806 806 693 693 693 693 693 123 123 123 542 542 542 393 393 393 393 393 285 285 285 285 190 190 190 190 732 732 732 732 124 124 768 768 768 660 660 660 660 660 660 660 660 660 946 946 946 946 946 946 103 103 103 103 103 103 361 361 361 361 361 361 361 361 594 594 594 594 594 594 594 312 312 312 312 312 582 582 582 582 582 582 582 481 481 481 481 935 806 806 806 806 806 806 806 806 806 806 806 806 806 806 693 693 693 693 693 943 542 542 542 542 542 393 393 393 393 393 393 285 285 190 190 190 190 190 190 732 732 732 768 768 768 768 768 768 660 660 660 660 660 660 660 660 390 946 946 946 946 946 103 103 103 103 103 103 361 361 361 361 361 361 361 594 594 594 594 594 594 594 594 312 312 312 312 312 312 582 582 582 582 582 481 481 481 481 481 481 806 806 806 806 806 806 806 806 806 806 806 806 806 693 693 693 693 693 693 943 542 542 542 542 542 393 393 393 393 393 393 393 190 190 190 190 190 190 190 732 732 768 768 768 768 768 768 768 660 660 660 660 660 660 660 660 335 335 946 946 946 946 103 103 103 103 103 103 361 361 361 361 361 361 361 594 594 594 594 594 594 594 594 312 312 312 312 312 486 486 486 486 486 481 481 481 481 481 481 481 806 806 806 806 806 806 806 806 806 806 806 806 806 489 693 693 693 693 693 325 542 542 542 542 542 393 393 393 393 393 393 393 190 190 190 190 190 190 190 190 768 768 768 768 768 768 768 768 660 660 660 660 660 660 660 335 335 335 335 335 946 103 103 103 103 103 103 103 103 361 361 361 361 361 191 191 191 594 594 594 594 594 594 312 312 312 312 486 486 486 486 486 486 486 481 481 481 481 481 481 806 806 806 806 806 806 806 806 806 806 806 806 489 489 489 693 693 693 325 325 325 325 325 542 542 393 393 393 393 393 393 393 190 190 190 190 190 190 190 190 768 768 768 768 768 768 768 768 660 660 660 660 660 660 335 335 335 335 335 335 335 103 103 103 103 103 103 103 103 103 361 361 191 191 191 191 191 191 594 594 594 594 426 426 426 312 486 486 486 486 486 486 486 486 486 481 481 481 481 67 67 67 67 806 806 806 806 806 806 806 806 489 489 489 489 489 693 325 325 325 325 325 325 325 325 393 393 393 393 393 393 393 190 190 190 190 190 190 190 329 329 768 768 768 768 768 768 768 660 660 660 660 660 335 335 335 335 335 335 335 335 335 103 103 103 103 103 103 103 103 103 191 191 191 191 191 191 191 191 594 594 426 426 426 426 426 486 486 486 486 486 486 486 486 486 486 985 67 67 67 67 67 67 67 806 806 806 806 806 806 489 489 489 489 489 489 489 325 325 325 325 325 325 325 325 325 640 640 640 640 640 640 190 190 190 190 190 190 329 329 329 329 329 329 329 329 329 329 584 584 584 584 584 335 335 335 335 335 335 335 335 335 335 103 103 103 103 103 103 103 103 191 191 191 191 191 191 191 191 191 426 426 426 426 426 426 426 486 486 486 486 486 486 486 486 486 67 67 67 67 67 67 67 67 67 806 806 806 806 489 489 489 489 489 489 489 325 325 325 325 325 325 325 325 325 325 640 640 640 640 640 640 998 998 998 998 190 329 329 329 329 329 329 329 329 329 329 329 584 584 584 584 584 584 335 335 335 335 335 335 335 335 335 335 103 103 103 103 103 103 191 191 191 191 191 191 191 191 191 426 426 426 426 426 426 426 426 486 486 486 486 486 486 486 486 888 67 67 67 67 67 67 67 67 67 67 67 806 489 489 489 489 489 489 489 489 325 325 325 325 325 325 325 325 325 325 640 640 640 640 640 640 998 998 998 998 998 329 329 329 329 329 329 329 329 329 329 329 584 584 584 584 584 584 335 335 335 335 335 335 335 335 335 335 103 103 103 103 103 103 191 191 191 191 191 191 191 191 191 426 426 426 426 426 426 426 426 426 486 486 486 486 486 888 888 888 67 67 67 67 67 67 67 67 67 67 67 67 606 489 489 489 489 489 489 478 478 325 325 325 325 325 325 325 325 325 325 640 640 640 640 640 998 998 998 998 998 329 329 329 329 329 329 329 329 329 329 584 584 584 584 584 584 584 335 335 335 335 335 335 335 335 335 335 623 623 103 103 103 260 260 191 191 191 191 191 191 191 426 426 426 426 426 426 426 426 426 426 426 486 486 888 888 888 888 888 67 67 67 67 67 67 67 67 67 67 67 67 606 606 606 489 489 489 478 478 478 478 325 325 325 325 325 325 325 325 255 255 640 640 640 640 998 998 998 998 329 329 329 329 329 329 329 329 329 329 329 584 584 584 584 584 584 584 584 335 335 335 335 335 335 335 335 623 623 623 623 623 260 260 260 260 191 191 191 191 191 426 426 426 426 426 426 426 426 426 426 426 426 426 888 888 888 888 888 888 67 67 67 67 67 67 67 67 67 67 67 67 606 606 606 795 795 795 795 795 795 795 478 325 325 325 325 325 325 255 255 255 255 255 255 255 998 998 998 329 329 329 329 329 329 329 329 329 329 329 584 584 584 584 584 584 584 584 584 335 335 335 335 335 335 335 335 623 623 623 623 623 623 260 260 260 260 191 191 191 426 426 426 426 426 426 426 426 426 426 426 426 426 426 888 888 888 888 888 888 67 67 67 67 67 67 67 67 67 67 67 67 606 606 795 795 795 795 795 795 795 795 795 478 325 325 325 325 255 255 255 255 255 255 255 255 257 257 257 257 329 329 329 329 329 329 329 329 329 329 584 584 584 584 584 584 584 584 584 584 335 335 335 335 335 335 623 623 623 623 623 623 623 623 260 260 260 375 375 191 426 426 426 426 426 426 426 426 426 426 426 426 426 901 888 888 888 888 888 888 341 67 67 67 67 67 67 67 67 67 324 324 324 606 795 795 795 795 795 795 795 795 795 478 478 478 325 255 255 255 255 255 255 255 255 255 257 257 257 257 257 329 329 329 329 329 329 329 329 75 584 584 584 584 584 584 584 584 584 584 335 335 335 335 335 335 623 623 623 623 623 623 623 623 260 260 375 375 375 426 426 426 426 426 426 426 426 426 426 426 426 426 901 901 901 888 888 888 888 341 341 341 341 67 67 67 67 67 324 324 324 324 324 324 795 795 795 795 795 795 795 795 795 795 478 478 478 255 255 255 255 255 255 255 255 257 257 257 257 257 257 257 329 329 329 329 329 329 75 75 75 584 584 584 584 584 584 584 584 584 335 335 335 335 335 335 623 623 623 623 623 623 623 623 977 977 977 375 375 426 426 426 426 426 426 426 426 426 426 426 426 901 901 901 901 901 888 888 341 341 341 341 341 341 67 67 67 324 324 324 324 324 324 795 795 795 795 795 795 795 795 795 795 795 478 478 882 255 255 255 255 255 255 255 255 257 257 257 257 257 257 257 257 329 329 329 329 75 75 75 75 75 584 584 584 584 584 584 658 658 658 658 335 335 335 623 623 623 623 623 623 623 623 623 977 977 977 977 977 426 426 426 426 426 426 426 426 426 426 426 426 901 901 901 901 901 901 341 341 341 341 341 341 341 319 319 324 324 324 324 324 324 324 795 795 795 795 795 795 795 795 795 795 795 882 882 882 255 255 255 255 255 255 255 412 257 257 257 257 257 257 257 257 257 75 75 75 75 75 75 75 75 75 584 584 584 584 658 658 658 658 658 658 730 730 623 623 623 623 623 623 623 623 330 330 977 977 977 977 426 426 426 426 426 426 426 426 426 426 426 61 901 901 901 901 901 901 341 341 341 341 341 341 341 319 126 126 324 324 324 324 324 324 795 795 795 795 795 795 795 795 795 795 795 795 231 231 231 231 231 255 255 255 839 839 839 257 257 257 257 257 257 257 257 75 75 75 75 75 75 75 75 75 75 658 658 658 658 658 658 658 658 658 730 730 730 623 623 623 623 623 623 330 330 330 330 109 977 28 28 28 426 426 426 426 426 426 134 134 134 134 901 901 901 901 901 901 341 341 341 341 341 341 126 126 126 126 126 126 324 324 324 490 795 795 795 795 795 795 795 795 795 795 795 231 231 231 231 231 231 231 231 839 839 839 839 839 257 257 257 257 257 257 257 75 75 75 75 75 75 75 75 75 75 658 658 658 658 658 658 658 658 730 730 730 730 730 623 623 623 537 537 330 330 330 109 109 109 28 28 28 28 426 426 426 426 134 134 134 134 134 319 319 319 901 901 764 764 341 341 341 341 126 126 126 126 126 126 126 126 559 490 490 490 795 795 795 795 795 795 795 795 795 167 231 231 231 231 231 231 231 231 231 839 839 839 839 257 257 257 257 257 257 257 75 75 75 75 75 75 75 75 75 658 658 658 658 658 658 658 658 730 730 730 730 730 730 730 477 477 48 48 330 330 109 109 109 109 28 28 28 28 28 107 107 134 134 134 134 319 319 319 319 319 319 319 319 764 764 613 126 126 126 126 126 126 126 126 126 126 126 490 490 490 795 795 795 795 795 795 795 795 167 167 231 231 231 231 231 231 231 231 231 231 231 839 839 839 257 257 257 257 257 257 18 75 75 75 75 75 75 75 534 534 534 658 658 658 658 658 730 730 730 730 730 730 730 730 48 48 48 48 48 109 109 109 109 109 28 28 28 28 107 107 107 107 319 319 319 319 319 319 319 319 319 319 319 764 764 613 126 126 126 126 126 126 126 126 126 126 126 490 490 490 795 795 795 795 795 795 795 167 167 167 167 231 231 231 231 231 231 231 231 231 231 231 839 891 257 257 257 257 18 18 18 18 18 75 75 75 75 534 534 534 534 534 658 658 658 730 730 730 730 730 730 730 730 730 48 48 48 48 48 48 109 109 109 109 28 28 28 28 107 107 107 319 319 319 319 319 319 319 319 319 319 319 319 319 319 126 126 126 126 126 126 126 126 126 126 126 126 490 490 490 795 795 795 795 795 795 167 167 167 167 167 231 231 231 231 231 231 231 231 231 231 231 231 891 842 842 842 842 18 18 18 18 18 18 18 534 534 534 534 534 534 534 534 658 730 730 730 730 730 730 730 730 730 730 48 48 48 48 48 48 109 109 109 109 109 28 28 107 107 107 107 319 319 319 319 319 319 319 319 319 319 319 319 319 319 126 126 126 126 126 126 126 126 126 126 126 126 490 490 490 490 795 795 795 795 167 167 167 167 167 167 231 231 231 231 231 231 231 231 231 231 231 231 891 842 842 842 842 18 18 18 18 18 18 18 534 534 534 534 534 534 534 534 534 730 730 730 730 730 730 730 730 730 730 48 48 48 48 48 48 109 109 109 109 109 109 107 107 107 107 319 319 319 319 319 319 319 319 319 319 319 319 319 319 319 126 126 126 126 126 126 126 126 126 126 126 126 726 726 726 726 726 726 795 167 167 167 167 167 167 167 231 231 231 231 231 231 231 231 231 231 231 231 231 842 842 842 842 18 18 18 18 18 18 18 534 534 534 534 534 534 534 534 534 730 730 730 730 730 730 730 730 730 730 48 48 48 48 48 783 783 783 783 109 109 109 107 107 107 107 319 319 319 319 319 319 319 319 319 319 319 319 319 319 319 319 126 126 126 126 126 126 126 126 126 693 693 726 726 726 726 726 726 726 167 167 167 167 167 167 231 231 231 231 231 231 231 231 231 231 231 231 231 231 842 842 842 842 18 18 18 18 18 18 18 534 534 534 534 534 534 534 534 534 534 730 730 730 730 730 730 730 730 730 48 48 48 48 783 783 783 783 783 783 109 569 107 107 174 319 319 319 319 319 319 319 319 319 319 319 319 319 319 319 319 319 126 126 126 126 126 126 126 693 693 693 693 726 726 726 726 726 726 726 726 167 167 167 167 167 231 231 231 231 231 231 231 231 231 231 231 231 231 181 181 181 181 181 181 18 18 18 18 18 501 534 534 534 534 534 534 534 534 534 534 730 730 730 730 730 730 730 730 730 48 48 48 48 783 783 783 783 783 783 783 783 174 174 174 174 319 319 319 319 319 319 319 319 319 319 319 319 319 319 319 319 126 126 126 126 126 126 693 693 693 693 693 693 726 726 726 726 726 726 726 510 510 510 510 510 231 231 231 231 231 231 231 231 231 231 231 231 231 181 181 181 181 181 181 181 18 339 339 339 501 501 534 534 534 534 534 534 534 534 534 730 730 730 730 730 730 730 687 687 687 48 48 783 783 783 783 783 783 783 783 174 174 174 174 174 174 319 319 319 319 319 319 319 319 319 319 319 319 319 319 319 126 126 126 126 126 693 693 693 693 693 693 693 726 726 726 726 726 726 726 510 510 510 510 510 510 231 231 231 231 231 231 231 231 231 231 231 181 181 181 181 181 181 181 181 181 339 339 501 501 501 501 534 534 534 534 534 534 534 520 520 520 730 730 730 730 687 687 687 687 687 687 783 783 783 783 783 783 776 776 174 174 174 174 174 174 174 319 319 319 319 319 319 319 319 319 319 319 319 319 319 319 126 126 126 693 693 693 693 693 693 693 693 726 726 726 726 726 726 510 510 510 510 510 510 510 510 231 231 231 231 231 231 231 231 231 231 181 181 181 181 181 181 181 181 181 638 638 501 501 501 501 501 534 534 534 534 534 520 520 520 520 520 730 687 687 687 687 687 687 687 687 783 783 783 783 783 776 776 776 174 174 174 174 174 174 174 319 319 319 319 319 319 319 319 319 319 319 319 319 319 438 438 438 438 438 693 693 693 693 693 693 693 726 726 726 726 726 510 510 510 510 510 510 510 510 510 171 171 231 231 231 231 231 231 231 231 181 181 181 181 181 181 181 181 638 638 638 638 501 501 501 501 501 501 534 534 520 520 520 520 520 520 520 687 687 687 687 687 687 687 687 687 176 783 783 776 776 776 776 174 174 174 174 174 174 174 174 319 319 319 319 319 319 319 319 319 319 319 319 438 438 438 438 438 438 438 693 693 693 693 693 693 726 726 726 726 510 510 510 510 510 510 510 510 510 510 171 171 171 171 171 171 231 231 231 231 181 181 181 181 181 181 181 638 638 638 638 638 638 501 501 501 501 501 501 747 520 520 520 520 520 520 520 687 687 687 687 687 687 687 687 176 176 176 176 776 776 776 776 174 174 174 174 174 174 174 174 319 319 319 319 319 319 319 319 319 319 319 438 438 438 438 438 438 438 438 438 438 693 693 693 16 16 726 726 510 510 510 510 510 510 510 510 510 510 510 171 171 171 171 171 171 171 171 389 389 389 389 181 181 181 181 638 638 638 638 638 638 638 638 501 501 501 501 747 747 747 520 520 520 520 520 117 117 687 687 687 687 687 687 687 176 176 176 176 176 776 776 776 174 174 174 174 174 174 174 174 174 319 319 319 319 319 319 319 319 319 438 438 438 438 438 438 438 438 438 438 438 438 438 16 16 16 16 726 510 510 510 510 510 510 510 510 510 510 510 171 171 171 171 171 171 171 171 389 389 389 389 389 389 181 638 638 638 638 638 638 638 638 638 638 501 501 747 747 747 747 747 520 520 520 117 117 117 117 687 687 687 687 687 176 176 176 176 176 176 176 146 146 174 174 174 174 174 174 174 174 174 319 319 319 319 319 319 319 319 438 438 438 438 438 438 438 438 438 438 438 438 438 438 16 16 16 16 16 510 510 510 510 510 510 510 510 510 510 171 171 171 171 171 171 171 171 171 389 389 389 389 389 389 389 638 638 638 638 638 638 638 638 638 638 346 747 747 747 747 747 747 747 117 117 117 117 117 117 117 687 687 687 582 176 176 176 176 176 176 176 146 146 146 174 174 174 174 174 174 174 174 319 319 319 319 331 331 331 438 438 438 438 438 438 438 438 438 438 438 438 438 438 438 16 16 16 16 16 510 510 510 510 510 510 510 510 510 510 171 171 171 171 171 171 171 171 171 389 389 389 389 389 389 389 638 638 638 638 638 638 638 638 638 346 346 346 747 747 747 747 747 117 117 117 117 117 117 117 117 582 582 582 582 582 176 176 176 176 176 176 146 146 146 379 174 174 174 174 174 174 111 319 331 331 331 331 331 331 331 438 438 438 438 438 438 438 438 438 438 438 438 438 438 438 16 16 16 16 510 510 510 510 510 510 510 510 510 171 171 171 171 171 171 171 171 171 171 389 389 389 389 389 389 419 419 419 638 638 638 638 638 638 346 346 346 346 747 747 747 747 747 117 117 117 117 117 117 117 582 582 582 582 582 582 582 176 176 176 176 176 146 146 379 379 379 379 379 379 309 309 309 309 331 331 331 331 331 331 331 438 438 438 438 438 438 438 438 438 438 438 438 438 438 438 16 16 16 16 510 510 510 510 510 510 510 510 510 171 171 171 171 171 171 171 171 171 171 389 389 389 389 389 419 419 419 419 419 419 638 638 638 346 346 346 346 346 747 747 747 747 117 117 117 117 117 117 117 117 582 582 582 582 582 582 582 582 582 176 176 176 379 379 379 379 379 379 379 379 309 309 309 309 309 331 331 331 331 331 331 331 438 438 438 438 438 438 438 438 438 438 438 438 438 438 16 16 14 14 14 510 510 510 510 510 510 510 171 171 171 171 171 171 171 171 171 171 782 782 389 389 389 419 419 419 419 419 419 419 419 419 638 346 346 346 100 100 100 747 747 117 117 117 117 117 117 117 117 582 582 582 582 582 582 582 582 582 582 582 582 379 379 379 379 379 379 379 379 379 309 309 309 309 309 331 331 331 331 331 331 331 438 438 438 438 438 438 438 438 438 438 438 438 438 438 16 14 14 14 14 14 510 510 510 510 510 575 575 171 171 171 171 171 171 171 782 782 782 782 332 332 419 419 419 419 419 419 419 419 419 419 419 346 346 100 100 100 100 100 117 117 117 117 117 117 117 117 117 582 582 582 582 582 582 582 582 582 582 582 582 379 379 379 379 379 379 379 379 379 309 309 309 309 309 309 331 331 331 331 331 331 707 438 438 438 438 438 438 438 438 438 438 438 438 438 302 14 14 14 14 14 287 287 287 287 575 575 575 575 575 575 575 171 171 782 782 782 782 332 332 332 419 419 419 419 419 419 419 419 419 419 419 419 100 100 100 100 100 100 416 416 117 117 117 117 117 117 582 582 582 582 582 582 582 582 582 582 582 582 582 379 379 379 379 379 379 379 379 379 309 309 309 309 309 309 331 331 331 331 331 707 707 707 438 438 438 438 438 438 438 438 438 438 438 302 302 302 14 14 14 287 287 287 287 287 575 575 575 575 575 575 575 575 782 782 782 782 332 332 332 332 419 419 419 419 419 419 419 419 419 419 419 419 100 100 100 100 100 100 416 416 117 117 117 117 117 117 582 582 582 582 582 582 582 582 582 582 582 582 582 379 379 379 379 379 379 379 379 379 309 309 309 309 309 309 309 331 331 331 707 707 707 707 707 707 438 438 438 438 438 438 438 500 500 302 302 302 302 287 287 287 287 287 287 287 575 575 575 575 575 575 575 575 575 782 782 332 332 332 332 332 332 419 419 419 419 419 419 419 419 419 419 419 100 100 100 100 100 100 416 416 117 117 117 117 67 67 67 582 582 582 582 582 582 582 582 582 582 582 582 379 379 379 379 379 379 379 379 379 309 309 309 309 309 309 309 309 331 707 707 707 707 707 707 707 438 438 438 438 438 438 500 500 500 302 302 302 302 287 287 287 287 287 287 575 575 575 575 575 575 575 575 575 575 575 782 332 332 332 130 130 130 419 419 419 419 419 419 419 419 419 419 655 655 655 655 655 655 655 100 67 67 67 67 67 67 67 67 67 582 582 582 582 582 582 582 582 582 582 379 379 379 379 379 379 379 379 379 379 309 309 309 309 309 309 309 309 707 707 707 707 707 707 707 707 707 329 329 329 329 329 500 500 500 302 302 302 302 287 287 287 287 287 287 575 575 575 575 575 575 575 575 575 575 575 575 332 130 130 130 130 130 130 419 419 419 419 419 419 419 419 419 655 655 655 655 655 655 655 655 67 67 67 67 67 67 67 67 67 67 582 582 582 582 582 582 582 582 338 338 379 379 379 379 379 379 379 379 379 309 309 309 309 309 309 309 309 575 707 707 707 707 707 707 707 329 329 329 329 329 329 329 500 500 274 274 274 274 274 287 287 287 287 575 575 575 575 575 575 575 575 575 575 575 575 575 130 130 130 130 130 130 130 130 419 419 419 419 419 419 419 655 655 655 655 655 655 655 655 655 67 67 67 67 67 67 67 67 67 67 582 582 582 582 582 582 582 338 338 338 338 379 379 379 379 379 379 379 379 309 309 309 309 309 309 309 575 575 575 707 707 707 707 707 329 329 329 329 329 329 329 329 329 274 274 274 274 274 274 274 287 287 575 575 575 575 575 575 575 575 575 575 575 575 575 575 130 130 130 130 130 130 130 130 130 419 419 419 419 419 655 655 655 655 655 655 655 655 655 655 655 67 67 67 67 67 67 67 67 67 67 582 582 582 582 582 338 338 338 338 338 338 379 379 379 379 379 379 379 309 309 309 309 309 309 575 575 575 575 575 195 195 195 195 329 329 329 329 329 329 329 329 274 274 274 274 274 274 274 274 274 575 575 575 575 575 575 575 575 575 575 575 575 575 575 575 130 130 130 130 130 130 130 130 90 90 90 90 419 655 655 655 655 655 655 655 655 655 655 655 655 148 67 67 67 67 67 67 67 67 67 582 582 582 582 338 338 338 338 338 338 338 338 379 379 379 379 379 379 309 309 309 309 309 575 575 575 575 575 575 195 195 195 195 329 329 329 329 329 329 329 329 274 274 274 274 274 274 274 274 274 274 575 575 575 575 575 575 575 575 575 575 575 575 575 575 130 130 130 130 130 130 130 90 90 90 90 90 90 655 655 655 655 655 655 655 655 655 655 655 655 561 561 67 67 67 67 67 67 67 67 150 582 582 338 338 338 338 338 338 338 338 338 338 379 379 379 379 379 712 712 712 712 712 712 575 575 575 575 853 853 853 853 853 329 329 329 329 329 329 329 274 274 274 274 274 274 274 274 274 274 274 575 575 575 575 575 575 575 575 575 575 575 575 575 575 174 174 130 130 515 515 515 90 90 90 90 90 28 28 28 655 655 655 655 655 655 655 655 655 561 561 561 561 561 67 67 67 67 67 150 150 150 150 338 338 338 338 338 338 338 338 338 338 777 777 777 777 712 712 712 712 712 712 712 712 712 575 853 853 853 853 853 853 853 329 329 329 329 329 274 274 274 274 274 274 274 274 274 274 274 274 575 575 575 575 575 575 575 575 575 575 575 575 575 174 174 174 174 515 515 515 515 515 90 90 90 90 28 28 28 28 28 655 655 655 655 655 655 561 561 561 561 561 561 561 561 67 67 150 150 150 150 150 150 338 338 338 338 338 338 338 338 338 777 777 777 777 712 712 712 712 712 712 712 712 712 712 853 853 853 853 853 853 853 212 212 329 329 329 274 274 274 274 274 274 274 274 274 274 274 458 458 575 575 575 575 575 575 575 575 575 575 575 174 174 174 174 174 515 515 515 515 515 946 946 946 946 28 28 28 28 28 102 102 102 655 655 561 561 561 561 561 561 561 561 561 561 150 150 150 150 150 150 150 150 338 338 338 338 338 338 338 777 777 777 777 712 712 712 712 712 712 712 712 712 712 712 853 853 853 853 853 853 212 212 212 212 212 212 274 274 274 274 274 274 274 274 274 274 458 458 458 458 575 575 575 575 575 575 575 575 575 174 174 174 174 174 174 515 515 515 515 515 946 946 946 946 946 28 28 28 28 102 102 102 102 102 561 561 561 561 561 561 561 561 561 561 150 150 150 150 150 150 150 150 150 338 338 338 338 338 338 777 777 777 777 712 712 712 712 712 712 712 712 712 712 558 558 853 853 853 853 212 212 212 212 212 212 212 212 274 274 274 274 274 274 274 274 274 458 458 458 458 458 575 575 575 575 575 575 575 174 174 174 174 174 174 174 515 515 515 515 815 946 946 946 946 946 946 946 28 946 102 102 102 102 102 561 561 561 561 561 561 561 561 561 150 150 150 150 150 150 150 150 150 150 338 338 338 338 338 777 777 777 777 777 712 712 712 712 712 712 712 712 712 558 558 558 558 558 853 212 212 212 212 212 212 212 212 212 212 274 274 274 274 274 274 274 458 458 458 458 458 458 458 458 575 575 575 575 174 174 174 174 174 174 174 174 515 515 815 815 815 946 946 946 946 946 946 946 946 946 142 142 142 102 102 457 457 457 561 561 561 561 561 150 150 150 150 150 150 150 150 150 150 150 996 996 996 338 338 777 777 777 777 712 712 712 712 712 712 712 712 712 558 558 558 558 558 558 212 212 212 212 212 212 212 212 212 212 212 274 274 274 274 274 274 458 458 458 458 458 458 458 458 458 458 280 280 280 174 174 174 174 174 174 174 174 174 815 815 815 815 946 946 946 946 946 946 946 946 946 946 142 142 837 837 457 457 457 457 457 457 457 457 150 150 150 150 150 150 150 150 150 150 996 996 996 996 996 443 443 443 443 443 712 712 712 712 712 712 712 712 558 558 558 558 558 558 558 212 212 212 212 212 212 212 212 212 212 212 679 679 274 274 274 186 458 458 458 458 458 458 458 458 458 280 280 280 280 280 174 174 174 174 174 174 174 815 815 815 815 946 946 946 946 946 946 946 946 946 946 946 946 837 837 837 457 457 457 457 457 457 457 457 457 150 150 150 150 150 150 150 150 150 996 996 996 996 443 443 443 443 443 443 443 712 712 712 712 712 712 558 558 558 558 558 558 558 558 455 212 212 212 212 212 212 212 212 212 212 679 679 679 679 186 186 186 458 458 458 458 458 458 458 458 280 280 280 280 743 743 743 174 174 174 174 63 63 815 815 946 946 946 946 946 946 946 946 946 946 946 946 946 837 837 837 457 457 457 457 457 457 457 457 457 150 150 150 150 150 150 150 150 150 996 996 996 996 443 443 443 443 443 443 443 443 712 712 712 712 712 558 558 558 558 558 558 558 455 455 455 455 455 455 455 212 212 212 212 679 679 679 679 679 186 186 186 186 458 458 458 458 458 458 458 280 280 280 743 743 743 743 743 743 743 63 63 63 63 946 946 946 946 946 946 946 946 946 946 946 946 946 946 837 837 837 457 457 457 457 457 457 457 457 457 457 150 150 150 150 150 150 150 150 996 996 996 443 443 443 443 443 443 443 443 443 443 712 712 712 558 558 558 558 558 558 558 455 455 455 455 455 455 455 455 455 212 212 17 17 17 679 679 17 186 186 186 186 186 458 458 458 458 458 280 280 280 743 743 743 743 743 743 743 63 63 63 63 63 946 946 946 946 946 946 946 946 946 946 946 946 946 946 939 939 939 457 457 457 457 457 457 457 457 457 457 457 150 150 150 150 150 150 345 345 345 345 443 443 443 443 443 443 443 443 443 443 443 349 349 349 558 558 558 558 558 558 455 455 455 455 455 455 455 455 455 455 455 17 17 17 17 17 17 17 186 186 186 186 671 671 671 671 480 480 480 743 743 743 743 743 743 743 743 63 63 63 63 63 946 946 946 946 946 946 946 946 946 946 946 946 946 939 939 939 939 457 457 457 457 457 457 457 457 457 457 457 457 150 150 150 150 345 345 345 345 345 443 443 443 443 443 443 443 443 443 443 443 349 349 349 349 558 558 558 558 455 455 455 455 455 455 455 455 455 455 455 455 17 17 17 17 17 17 17 186 186 186 671 671 671 671 671 671 480 480 480 743 743 743 743 743 743 743 63 63 63 63 63 946 946 946 946 946 946 946 946 946 946 946 946 939 939 939 939 939 939 457 457 457 457 457 457 457 457 457 457 457 483 483 483 483 345 345 345 345 345 443 443 443 443 443 443 443 443 443 443 349 349 349 349 339 339 339 339 455 455 455 455 455 455 455 455 455 455 455 455 455 17 17 17 17 17 17 17 17 186 671 671 671 671 671 671 671 480 480 480 743 743 743 743 743 743 743 63 63 63 63 63 946 946 946 946 946 946 946 946 946 946 946 939 939 939 939 939 939 939 939 457 457 457 457 457 457 457 457 457 457 483 483 483 483 483 345 345 345 869 443 443 443 443 443 443 443 443 162 162 162 349 349 339 339 339 339 339 455 455 455 455 455 455 455 455 455 455 455 455 455 17 17 17 17 17 17 17 17 671 671 671 671 671 671 671 671 480 480 480 480 743 743 743 743 743 743 743 63 63 63 136 136 946 946 946 946 946 946 946 603 603 603 939 939 939 939 939 939 939 939 939 457 457 457 457 457 457 457 457 483 483 483 483 483 483 483 345 1 1 443 443 443 443 443 443 162 162 162 162 162 162 162 339 339 339 339 339 455 455 455 455 455 455 455 455 455 455 455 455 455 17 17 17 956 956 956 956 956 671 671 671 671 671 671 671 671 480 480 480 480 480 743 743 743 743 743 743 63 63 136 136 136 136 946 946 946 946 946 946 603 603 939 939 939 939 939 939 939 939 939 939 809 809 809 457 457 457 457 483 483 483 483 483 483 483 483 1 1 1 1 443 443 443 162 162 162 162 162 162 162 162 162 162 339 339 339 339 339 455 455 455 455 455 455 455 455 455 455 455 757 757 757 956 956 956 956 956 956 671 671 671 671 671 671 671 671 480 480 480 480 480 480 480 743 743 743 743 136 136 136 136 136 136 136 946 946 946 946 946 603 603 939 939 939 939 939 939 939 939 939 939 809 809 809 809 809 457 483 483 483 483 483 483 483 483 483 1 1 1 1 162 162 162 162 162 162 162 162 162 162 162 162 162 162 339 339 339 339 455 455 455 455 455 455 455 538 538 538 538 757 757 425 956 956 956 956 956 956 956 671 671 671 671 671 671 480 480 480 480 480 480 480 480 480 480 480 743 136 136 136 136 136 136 136 136 946 946 896 896 896 939 939 939 939 939 939 939 939 939 939 939 809 809 809 809 809 612 612 483 483 483 483 483 301 301 301 301 148 148 162 162 162 162 162 162 162 162 162 162 162 162 162 162 162 162 162 438 438 538 538 538 538 538 538 538 538 538 538 538 425 425 425 956 956 956 956 956 956 956 956 671 671 671 671 480 480 480 480 480 480 480 480 480 480 480 480 93 93 136 136 136 136 136 136 136 896 896 896 896 896 896 939 939 939 939 939 939 939 939 939 939 809 809 809 809 612 612 612 612 483 483 301 301 301 301 301 301 301 148 162 162 162 162 162 162 162 162 162 162 162 162 162 162 162 162 162 438 438 438 538 538 538 538 538 538 538 538 546 546 546 425 425 956 956 956 956 956 956 956 956 522 522 522 522 480 480 480 480 480 480 480 480 480 480 480 93 93 93 93 136 136 136 136 136 136 896 896 896 896 896 896 896 896 939 939 939 939 939 939 939 939 809 809 809 612 612 612 612 612 612 301 301 301 301 301 301 301 301 301 162 162 162 162 162 162 162 162 162 162 162 162 162 162 162 162 162 438 438 438 538 538 538 538 538 538 538 546 546 546 546 425 425 956 956 956 956 956 956 956 522 522 522 522 522 522 480 480 480 480 480 480 480 480 480 480 93 93 93 93 93 136 136 136 136 136 896 896 896 896 896 896 896 896 896 939 939 939 939 939 939 939 99 809 612 612 612 612 612 612 612 301 301 301 301 301 301 301 301 301 162 162 162 162 162 162 162 162 162 162 162 162 162 162 162 162 162 438 